(written by ASE)

8 atoms
1 atom types

0.0      5.9755752861126252  xlo xhi
0.0      5.6338264084013083  ylo yhi
0.0      4.8790367901871772  zlo zhi
    -1.9918584287042085     -1.9918584287042085     -2.8169132042006542  xy xz yz

Atoms # atomic

     1   1     0.40355051765547262     0.57070661517105259     0.98849285369192197
     2   1    -0.40355051765547262    -0.57070661517105259    -0.98849285369192197
     3   1     0.78120687573779068      2.8169132042006546 -2.4090181110783336e-18
     4   1    -0.78120687573779068     -2.8169132042006546  2.4090181110783336e-18
     5   1     -1.5883079110487359     0.26704337175822218      2.4395183950935886
     6   1      1.5883079110487359    -0.26704337175822218     -2.4395183950935886
     7   1       2.395408946359681    -0.83774998692927471      1.4510255414016664
     8   1      -2.395408946359681     0.83774998692927471     -1.4510255414016664
