(written by ASE)

1 atoms
1 atom types

0.0      2.9344931419241713  xlo xhi
0.0      2.5413456081375463  ylo yhi
0.0      2.3960036171369459  zlo zhi
     1.4672465709620857      1.4672465709620857     0.84711520271251561  xy xz yz

Atoms # atomic

     1   1                       0                       0                       0
