(written by ASE)

2 atoms
1 atom types

0.0      5.5999999999999961  xlo xhi
0.0      5.5999999999999961  ylo yhi
0.0      1.5475599999999989  zlo zhi
                      0       2.799999999999998       2.799999999999998  xy xz yz

Atoms # atomic

     1   1                       0      -1.399999999999999     0.38688999999999973
     2   1                       0       1.399999999999999    -0.38688999999999973
