ITEM: TIMESTEP
166
ITEM: NUMBER OF ATOMS
1727
ITEM: BOX BOUNDS pp pp pp
-1.6974000000000000e+01 1.6974000000000000e+01
-1.6974000000000000e+01 1.6974000000000000e+01
-1.6974000000000000e+01 1.6974000000000000e+01
ITEM: ATOMS id type xs ys zs c_eng
2 1 -0.0004988 0.0841612 0.0841612 -3.8254
3 1 0.0841612 -0.0004988 0.0841612 -3.8254
4 1 0.0841612 0.0841612 -0.0004988 -3.8254
5 1 0.0463316 0.0463316 0.0463316 -3.35929
9 1 0.166739 0 0 -3.84998
10 1 0.16682 0.0834256 0.0834256 -3.84913
11 1 0.250043 -3.6691e-06 0.0833625 -3.84999
12 1 0.250043 0.0833625 -3.6691e-06 -3.84999
13 1 0.208394 0.0416903 0.0416903 -3.84999
17 1 0.333345 0 0 -3.85
18 1 0.333348 0.0833389 0.0833389 -3.85
21 1 0.375008 0.0416686 0.0416686 -3.85
19 1 0.416672 -2.62354e-08 0.0833353 -3.85
20 1 0.416672 0.0833353 -2.62354e-08 -3.85
25 1 0.5 2.09303e-16 0 -3.85
26 1 0.499999 0.0833343 0.0833343 -3.85
27 1 0.583328 2.62354e-08 0.0833353 -3.85
28 1 0.583328 0.0833353 2.62354e-08 -3.85
29 1 0.541664 0.0416672 0.0416672 -3.85
33 1 0.666655 0 0 -3.85
34 1 0.666645 0.0833413 0.0833413 -3.85
35 1 0.749957 3.6691e-06 0.0833625 -3.84999
36 1 0.749957 0.0833625 3.6691e-06 -3.84999
37 1 0.70831 0.0416723 0.0416723 -3.85
41 1 0.833261 0 0 -3.84998
42 1 0.833134 0.0834169 0.0834169 -3.84998
45 1 0.874825 0.0416945 0.0416945 -3.84877
43 1 0.915839 0.0004988 0.0841612 -3.8254
44 1 0.915839 0.0841612 0.0004988 -3.8254
49 1 0 0.166739 0 -3.84998
51 1 0.0834256 0.16682 0.0834256 -3.84913
8 1 0.125665 0.125665 0.0416238 -3.84921
57 1 0.167044 0.167044 -0.000157218 -3.84949
16 1 0.291699 0.125023 0.0416724 -3.85
59 1 0.250073 0.166728 0.0833417 -3.84997
65 1 0.333355 0.166685 -7.55707e-06 -3.85
24 1 0.458336 0.125002 0.0416672 -3.85
67 1 0.416673 0.166671 0.0833337 -3.85
73 1 0.5 0.166669 0 -3.85
75 1 0.583323 0.166673 0.0833377 -3.85
32 1 0.624986 0.125007 0.0416688 -3.85
81 1 0.666645 0.166685 7.55707e-06 -3.85
40 1 0.791521 0.125092 0.0417167 -3.84992
83 1 0.749903 0.166727 0.0833954 -3.84999
89 1 0.832956 0.167044 0.000157218 -3.84949
48 1 0.958306 0.125175 0.0416945 -3.84877
91 1 0.916583 0.166866 0.0834169 -3.84998
50 1 -3.6691e-06 0.250043 0.0833625 -3.84999
52 1 0.0833625 0.250043 -3.6691e-06 -3.84999
53 1 0.0416903 0.208394 0.0416903 -3.84999
56 1 0.125023 0.291699 0.0416724 -3.85
58 1 0.166728 0.250073 0.0833417 -3.84997
60 1 0.250109 0.250109 -3.30982e-05 -3.84997
61 1 0.208524 0.208524 0.0416956 -3.84988
64 1 0.291724 0.291724 0.0416768 -3.84999
66 1 0.333361 0.250024 0.0833352 -3.85
69 1 0.375014 0.208346 0.0416677 -3.85
68 1 0.416676 0.250009 -2.97904e-06 -3.85
72 1 0.458337 0.291673 0.0416677 -3.85
74 1 0.499998 0.250005 0.0833351 -3.85
76 1 0.583324 0.250009 2.97904e-06 -3.85
77 1 0.541662 0.208338 0.0416676 -3.85
80 1 0.624982 0.291683 0.0416703 -3.85
82 1 0.666633 0.250026 0.0833531 -3.85
84 1 0.749891 0.250109 3.30982e-05 -3.84997
85 1 0.708282 0.208375 0.0416814 -3.84999
88 1 0.791625 0.291718 0.0416814 -3.84999
90 1 0.833273 0.250097 0.0833954 -3.84999
93 1 0.874908 0.208479 0.0417167 -3.84992
92 1 0.916637 0.250043 3.6691e-06 -3.84999
96 1 0.958328 0.29169 0.0416723 -3.85
97 1 0 0.333345 0 -3.85
99 1 0.0833389 0.333348 0.0833389 -3.85
101 1 0.0416686 0.375008 0.0416686 -3.85
105 1 0.166685 0.333355 -7.55707e-06 -3.85
107 1 0.250024 0.333361 0.0833352 -3.85
109 1 0.208346 0.375014 0.0416677 -3.85
113 1 0.333365 0.333365 -8.73274e-06 -3.85
117 1 0.375017 0.375017 0.0416703 -3.85
115 1 0.416675 0.333343 0.0833345 -3.85
121 1 0.5 0.333339 0 -3.85
123 1 0.583322 0.333344 0.0833397 -3.85
125 1 0.541662 0.375007 0.0416677 -3.85
129 1 0.666635 0.333365 8.73274e-06 -3.85
131 1 0.749974 0.333367 0.0833531 -3.85
133 1 0.708317 0.375018 0.0416703 -3.85
137 1 0.833315 0.333355 7.55707e-06 -3.85
141 1 0.874993 0.375014 0.0416688 -3.85
139 1 0.916659 0.333355 0.0833413 -3.85
98 1 -2.62354e-08 0.416672 0.0833353 -3.85
100 1 0.0833353 0.416672 -2.62354e-08 -3.85
104 1 0.125002 0.458336 0.0416672 -3.85
106 1 0.166671 0.416673 0.0833337 -3.85
108 1 0.250009 0.416676 -2.97904e-06 -3.85
112 1 0.291673 0.458337 0.0416677 -3.85
114 1 0.333343 0.416675 0.0833345 -3.85
116 1 0.416676 0.416676 -1.97866e-06 -3.85
120 1 0.458337 0.458337 0.0416683 -3.85
122 1 0.499999 0.416671 0.0833358 -3.85
124 1 0.583324 0.416676 1.97866e-06 -3.85
128 1 0.624993 0.458338 0.0416677 -3.85
130 1 0.666656 0.416678 0.0833397 -3.85
132 1 0.749991 0.416676 2.97904e-06 -3.85
136 1 0.791662 0.458338 0.0416676 -3.85
138 1 0.833327 0.416677 0.0833377 -3.85
140 1 0.916665 0.416672 2.62354e-08 -3.85
144 1 0.958333 0.458336 0.0416672 -3.85
145 1 2.09303e-16 0.5 -2.09303e-16 -3.85
146 1 2.62354e-08 0.583328 0.0833353 -3.85
147 1 0.0833343 0.499999 0.0833343 -3.85
148 1 0.0833353 0.583328 2.62354e-08 -3.85
149 1 0.0416672 0.541664 0.0416672 -3.85
153 1 0.166669 0.5 0 -3.85
154 1 0.166673 0.583323 0.0833377 -3.85
155 1 0.250005 0.499998 0.0833351 -3.85
156 1 0.250009 0.583324 2.97904e-06 -3.85
157 1 0.208338 0.541662 0.0416676 -3.85
161 1 0.333339 0.5 0 -3.85
162 1 0.333344 0.583322 0.0833397 -3.85
165 1 0.375007 0.541662 0.0416677 -3.85
163 1 0.416671 0.499999 0.0833358 -3.85
164 1 0.416676 0.583324 1.97866e-06 -3.85
169 1 0.5 0.5 0 -3.85
170 1 0.500001 0.583329 0.0833358 -3.85
171 1 0.583329 0.500001 0.0833358 -3.85
172 1 0.583324 0.583324 -1.97866e-06 -3.85
173 1 0.541663 0.541663 0.0416683 -3.85
177 1 0.666661 0.5 -1.04652e-16 -3.85
178 1 0.666657 0.583325 0.0833345 -3.85
179 1 0.749995 0.500002 0.0833351 -3.85
180 1 0.749991 0.583324 -2.97904e-06 -3.85
181 1 0.708327 0.541663 0.0416677 -3.85
185 1 0.833331 0.5 0 -3.85
186 1 0.833329 0.583327 0.0833337 -3.85
189 1 0.874998 0.541664 0.0416672 -3.85
187 1 0.916666 0.500001 0.0833343 -3.85
188 1 0.916665 0.583328 -2.62354e-08 -3.85
193 1 0 0.666655 2.09303e-16 -3.85
195 1 0.0833413 0.666645 0.0833413 -3.85
152 1 0.125007 0.624986 0.0416688 -3.85
201 1 0.166685 0.666645 7.55707e-06 -3.85
160 1 0.291683 0.624982 0.0416703 -3.85
203 1 0.250026 0.666633 0.0833531 -3.85
209 1 0.333365 0.666635 8.73274e-06 -3.85
168 1 0.458338 0.624993 0.0416677 -3.85
211 1 0.416678 0.666656 0.0833397 -3.85
217 1 0.5 0.666661 0 -3.85
219 1 0.583325 0.666657 0.0833345 -3.85
176 1 0.624983 0.624983 0.0416703 -3.85
225 1 0.666635 0.666635 -8.73274e-06 -3.85
184 1 0.791654 0.624986 0.0416677 -3.85
227 1 0.749976 0.666639 0.0833352 -3.85
233 1 0.833315 0.666645 -7.55707e-06 -3.85
192 1 0.958331 0.624992 0.0416686 -3.85
235 1 0.916661 0.666652 0.0833389 -3.85
194 1 3.6691e-06 0.749957 0.0833625 -3.84999
196 1 0.0833625 0.749957 3.6691e-06 -3.84999
197 1 0.0416723 0.70831 0.0416723 -3.85
200 1 0.125092 0.791521 0.0417167 -3.84992
202 1 0.166727 0.749903 0.0833954 -3.84999
204 1 0.250109 0.749891 3.30982e-05 -3.84997
205 1 0.208375 0.708282 0.0416814 -3.84999
208 1 0.291718 0.791625 0.0416814 -3.84999
210 1 0.333367 0.749974 0.0833531 -3.85
213 1 0.375018 0.708317 0.0416703 -3.85
212 1 0.416676 0.749991 2.97904e-06 -3.85
216 1 0.458338 0.791662 0.0416676 -3.85
218 1 0.500002 0.749995 0.0833351 -3.85
220 1 0.583324 0.749991 -2.97904e-06 -3.85
221 1 0.541663 0.708327 0.0416677 -3.85
224 1 0.624986 0.791654 0.0416677 -3.85
226 1 0.666639 0.749976 0.0833352 -3.85
228 1 0.749891 0.749891 -3.30982e-05 -3.84997
229 1 0.708276 0.708276 0.0416768 -3.84999
232 1 0.791476 0.791476 0.0416956 -3.84988
234 1 0.833272 0.749927 0.0833417 -3.84997
237 1 0.874977 0.708301 0.0416724 -3.85
236 1 0.916637 0.749957 -3.6691e-06 -3.84999
240 1 0.95831 0.791606 0.0416903 -3.84999
241 1 0 0.833261 0 -3.84998
243 1 0.0834169 0.833134 0.0834169 -3.84998
245 1 0.0416945 0.874825 0.0416945 -3.84877
249 1 0.167044 0.832956 0.000157218 -3.84949
251 1 0.250097 0.833273 0.0833954 -3.84999
253 1 0.208479 0.874908 0.0417167 -3.84992
257 1 0.333355 0.833315 7.55707e-06 -3.85
261 1 0.375014 0.874993 0.0416688 -3.85
259 1 0.416677 0.833327 0.0833377 -3.85
265 1 0.5 0.833331 0 -3.85
267 1 0.583327 0.833329 0.0833337 -3.85
269 1 0.541664 0.874998 0.0416672 -3.85
273 1 0.666645 0.833315 -7.55707e-06 -3.85
275 1 0.749927 0.833272 0.0833417 -3.84997
277 1 0.708301 0.874977 0.0416724 -3.85
281 1 0.832956 0.832956 -0.000157218 -3.84949
285 1 0.874335 0.874335 0.0416238 -3.84921
283 1 0.916574 0.83318 0.0834256 -3.84913
242 1 0.0004988 0.915839 0.0841612 -3.8254
244 1 0.0841612 0.915839 0.0004988 -3.8254
248 1 0.125175 0.958306 0.0416945 -3.84877
250 1 0.166866 0.916583 0.0834169 -3.84998
252 1 0.250043 0.916637 3.6691e-06 -3.84999
256 1 0.29169 0.958328 0.0416723 -3.85
258 1 0.333355 0.916659 0.0833413 -3.85
260 1 0.416672 0.916665 2.62354e-08 -3.85
264 1 0.458336 0.958333 0.0416672 -3.85
266 1 0.500001 0.916666 0.0833343 -3.85
268 1 0.583328 0.916665 -2.62354e-08 -3.85
272 1 0.624992 0.958331 0.0416686 -3.85
274 1 0.666652 0.916661 0.0833389 -3.85
276 1 0.749957 0.916637 -3.6691e-06 -3.84999
280 1 0.791606 0.95831 0.0416903 -3.84999
282 1 0.83318 0.916574 0.0834256 -3.84913
284 1 0.915839 0.915839 -0.0004988 -3.8254
288 1 0.953668 0.953668 0.0463316 -3.35929
289 1 0 0 0.166739 -3.84998
292 1 0.0834256 0.0834256 0.16682 -3.84913
293 1 0.0416903 0.0416903 0.208394 -3.84999
7 1 0.125665 0.0416238 0.125665 -3.84921
297 1 0.167044 -0.000157218 0.167044 -3.84949
15 1 0.291699 0.0416724 0.125023 -3.85
300 1 0.250073 0.0833417 0.166728 -3.84997
301 1 0.208524 0.0416956 0.208524 -3.84988
305 1 0.333355 -7.55707e-06 0.166685 -3.85
309 1 0.375014 0.0416677 0.208346 -3.85
23 1 0.458336 0.0416672 0.125002 -3.85
308 1 0.416673 0.0833337 0.166671 -3.85
313 1 0.5 0 0.166669 -3.85
316 1 0.583323 0.0833377 0.166673 -3.85
317 1 0.541662 0.0416676 0.208338 -3.85
31 1 0.624986 0.0416688 0.125007 -3.85
321 1 0.666645 7.55707e-06 0.166685 -3.85
39 1 0.791521 0.0417167 0.125092 -3.84992
324 1 0.749903 0.0833954 0.166727 -3.84999
325 1 0.708282 0.0416814 0.208375 -3.84999
329 1 0.832956 0.000157218 0.167044 -3.84949
333 1 0.874908 0.0417167 0.208479 -3.84992
47 1 0.958306 0.0416945 0.125175 -3.84877
332 1 0.916583 0.0834169 0.166866 -3.84998
6 1 0.0416238 0.125665 0.125665 -3.84921
337 1 -0.000157218 0.167044 0.167044 -3.84949
296 1 0.125085 0.125085 0.208472 -3.84998
345 1 0.166717 0.166717 0.166717 -3.84998
14 1 0.208472 0.125085 0.125085 -3.84998
304 1 0.291716 0.125023 0.208369 -3.85
22 1 0.375012 0.125005 0.125005 -3.85
353 1 0.333359 0.166678 0.166678 -3.85
312 1 0.458335 0.125002 0.208337 -3.85
30 1 0.541661 0.125003 0.125003 -3.85
361 1 0.499998 0.16667 0.16667 -3.85
320 1 0.624977 0.125009 0.208346 -3.85
369 1 0.666629 0.16669 0.16669 -3.85
38 1 0.708271 0.125026 0.125026 -3.84999
328 1 0.791635 0.125026 0.208365 -3.84999
46 1 0.87496 0.12504 0.12504 -3.84994
377 1 0.833295 0.166705 0.166705 -3.85
336 1 0.958283 0.125092 0.208479 -3.84992
54 1 0.0416724 0.291699 0.125023 -3.85
340 1 0.0833417 0.250073 0.166728 -3.84997
341 1 0.0416956 0.208524 0.208524 -3.84988
55 1 0.125085 0.208472 0.125085 -3.84998
344 1 0.125023 0.291716 0.208369 -3.85
62 1 0.208369 0.291716 0.125023 -3.85
63 1 0.291716 0.208369 0.125023 -3.85
348 1 0.250024 0.250024 0.166678 -3.85
349 1 0.208373 0.208373 0.208373 -3.85
352 1 0.291682 0.291682 0.208345 -3.85
70 1 0.375017 0.291681 0.125008 -3.85
357 1 0.375015 0.208343 0.208343 -3.85
71 1 0.458335 0.208337 0.125002 -3.85
356 1 0.416674 0.250006 0.16667 -3.85
360 1 0.458335 0.291672 0.208338 -3.85
78 1 0.54166 0.291673 0.125003 -3.85
364 1 0.583319 0.25001 0.166676 -3.85
365 1 0.541659 0.208338 0.208338 -3.85
79 1 0.624977 0.208346 0.125009 -3.85
368 1 0.624991 0.291674 0.20834 -3.85
86 1 0.708317 0.291683 0.125012 -3.85
87 1 0.791635 0.208365 0.125026 -3.84999
372 1 0.749977 0.250023 0.16669 -3.85
373 1 0.708314 0.208347 0.208347 -3.85
376 1 0.791653 0.291686 0.208347 -3.85
94 1 0.874974 0.291729 0.125026 -3.84999
381 1 0.874974 0.208365 0.208365 -3.84999
95 1 0.958283 0.208479 0.125092 -3.84992
380 1 0.916605 0.250097 0.166727 -3.84999
384 1 0.958319 0.291718 0.208375 -3.84999
385 1 -7.55707e-06 0.333355 0.166685 -3.85
389 1 0.0416677 0.375014 0.208346 -3.85
103 1 0.125005 0.375012 0.125005 -3.85
393 1 0.166678 0.333359 0.166678 -3.85
111 1 0.291681 0.375017 0.125008 -3.85
397 1 0.208343 0.375015 0.208343 -3.85
401 1 0.333343 0.333343 0.16667 -3.85
405 1 0.375005 0.375005 0.208338 -3.85
119 1 0.458337 0.375006 0.125004 -3.85
409 1 0.499998 0.333338 0.166671 -3.85
413 1 0.541664 0.375003 0.208337 -3.85
127 1 0.624993 0.375007 0.125004 -3.85
417 1 0.666654 0.333346 0.166678 -3.85
135 1 0.791654 0.375023 0.125009 -3.85
421 1 0.708326 0.375009 0.20834 -3.85
425 1 0.83331 0.333371 0.16669 -3.85
429 1 0.874991 0.375023 0.208346 -3.85
143 1 0.958331 0.375014 0.125007 -3.85
102 1 0.0416672 0.458336 0.125002 -3.85
388 1 0.0833337 0.416673 0.166671 -3.85
392 1 0.125002 0.458335 0.208337 -3.85
110 1 0.208337 0.458335 0.125002 -3.85
396 1 0.250006 0.416674 0.16667 -3.85
400 1 0.291672 0.458335 0.208338 -3.85
118 1 0.375006 0.458337 0.125004 -3.85
404 1 0.416669 0.416669 0.16667 -3.85
408 1 0.458334 0.458334 0.208336 -3.85
126 1 0.541665 0.458335 0.125003 -3.85
412 1 0.583329 0.416671 0.166671 -3.85
416 1 0.624997 0.458336 0.208337 -3.85
134 1 0.708327 0.45834 0.125003 -3.85
420 1 0.74999 0.416681 0.166676 -3.85
424 1 0.791662 0.458341 0.208338 -3.85
142 1 0.874997 0.458339 0.125003 -3.85
428 1 0.916662 0.416677 0.166673 -3.85
432 1 0.958332 0.458338 0.208338 -3.85
433 1 0 0.5 0.166669 -3.85
436 1 0.0833377 0.583323 0.166673 -3.85
437 1 0.0416676 0.541662 0.208338 -3.85
151 1 0.125003 0.541661 0.125003 -3.85
441 1 0.16667 0.499998 0.16667 -3.85
159 1 0.291673 0.54166 0.125003 -3.85
444 1 0.25001 0.583319 0.166676 -3.85
445 1 0.208338 0.541659 0.208338 -3.85
449 1 0.333338 0.499998 0.166671 -3.85
453 1 0.375003 0.541664 0.208337 -3.85
167 1 0.458335 0.541665 0.125003 -3.85
452 1 0.416671 0.583329 0.166671 -3.85
457 1 0.5 0.5 0.16667 -3.85
460 1 0.583331 0.583331 0.16667 -3.85
461 1 0.541666 0.541666 0.208336 -3.85
175 1 0.624994 0.541663 0.125004 -3.85
465 1 0.666662 0.500002 0.166671 -3.85
183 1 0.791663 0.541665 0.125002 -3.85
468 1 0.749994 0.583326 0.16667 -3.85
469 1 0.708328 0.541665 0.208338 -3.85
473 1 0.83333 0.500002 0.16667 -3.85
477 1 0.874998 0.541665 0.208337 -3.85
191 1 0.958333 0.541664 0.125002 -3.85
476 1 0.916666 0.583327 0.166671 -3.85
150 1 0.0416688 0.624986 0.125007 -3.85
481 1 7.55707e-06 0.666645 0.166685 -3.85
440 1 0.125009 0.624977 0.208346 -3.85
489 1 0.16669 0.666629 0.16669 -3.85
158 1 0.208346 0.624977 0.125009 -3.85
448 1 0.291674 0.624991 0.20834 -3.85
166 1 0.375007 0.624993 0.125004 -3.85
497 1 0.333346 0.666654 0.166678 -3.85
456 1 0.458336 0.624997 0.208337 -3.85
174 1 0.541663 0.624994 0.125004 -3.85
505 1 0.500002 0.666662 0.166671 -3.85
464 1 0.624995 0.624995 0.208338 -3.85
513 1 0.666657 0.666657 0.16667 -3.85
182 1 0.708319 0.624983 0.125008 -3.85
472 1 0.791657 0.624985 0.208343 -3.85
190 1 0.874995 0.624988 0.125005 -3.85
521 1 0.833322 0.666641 0.166678 -3.85
480 1 0.958332 0.624986 0.208346 -3.85
198 1 0.0417167 0.791521 0.125092 -3.84992
484 1 0.0833954 0.749903 0.166727 -3.84999
485 1 0.0416814 0.708282 0.208375 -3.84999
199 1 0.125026 0.708271 0.125026 -3.84999
488 1 0.125026 0.791635 0.208365 -3.84999
206 1 0.208365 0.791635 0.125026 -3.84999
207 1 0.291683 0.708317 0.125012 -3.85
492 1 0.250023 0.749977 0.16669 -3.85
493 1 0.208347 0.708314 0.208347 -3.85
496 1 0.291686 0.791653 0.208347 -3.85
214 1 0.375023 0.791654 0.125009 -3.85
501 1 0.375009 0.708326 0.20834 -3.85
215 1 0.45834 0.708327 0.125003 -3.85
500 1 0.416681 0.74999 0.166676 -3.85
504 1 0.458341 0.791662 0.208338 -3.85
222 1 0.541665 0.791663 0.125002 -3.85
508 1 0.583326 0.749994 0.16667 -3.85
509 1 0.541665 0.708328 0.208338 -3.85
223 1 0.624983 0.708319 0.125008 -3.85
512 1 0.624985 0.791657 0.208343 -3.85
230 1 0.708284 0.791631 0.125023 -3.85
231 1 0.791631 0.708284 0.125023 -3.85
516 1 0.749976 0.749976 0.166678 -3.85
517 1 0.708318 0.708318 0.208345 -3.85
520 1 0.791627 0.791627 0.208373 -3.85
238 1 0.874915 0.791528 0.125085 -3.84998
525 1 0.874977 0.708284 0.208369 -3.85
239 1 0.958328 0.708301 0.125023 -3.85
524 1 0.916658 0.749927 0.166728 -3.84997
528 1 0.958304 0.791476 0.208524 -3.84988
529 1 0.000157218 0.832956 0.167044 -3.84949
533 1 0.0417167 0.874908 0.208479 -3.84992
247 1 0.12504 0.87496 0.12504 -3.84994
537 1 0.166705 0.833295 0.166705 -3.85
255 1 0.291729 0.874974 0.125026 -3.84999
541 1 0.208365 0.874974 0.208365 -3.84999
545 1 0.333371 0.83331 0.16669 -3.85
549 1 0.375023 0.874991 0.208346 -3.85
263 1 0.458339 0.874997 0.125003 -3.85
553 1 0.500002 0.83333 0.16667 -3.85
557 1 0.541665 0.874998 0.208337 -3.85
271 1 0.624988 0.874995 0.125005 -3.85
561 1 0.666641 0.833322 0.166678 -3.85
279 1 0.791528 0.874915 0.125085 -3.84998
565 1 0.708284 0.874977 0.208369 -3.85
569 1 0.833283 0.833283 0.166717 -3.84998
573 1 0.874915 0.874915 0.208472 -3.84998
287 1 0.958376 0.874335 0.125665 -3.84921
246 1 0.0416945 0.958306 0.125175 -3.84877
532 1 0.0834169 0.916583 0.166866 -3.84998
536 1 0.125092 0.958283 0.208479 -3.84992
254 1 0.208479 0.958283 0.125092 -3.84992
540 1 0.250097 0.916605 0.166727 -3.84999
544 1 0.291718 0.958319 0.208375 -3.84999
262 1 0.375014 0.958331 0.125007 -3.85
548 1 0.416677 0.916662 0.166673 -3.85
552 1 0.458338 0.958332 0.208338 -3.85
270 1 0.541664 0.958333 0.125002 -3.85
556 1 0.583327 0.916666 0.166671 -3.85
560 1 0.624986 0.958332 0.208346 -3.85
278 1 0.708301 0.958328 0.125023 -3.85
564 1 0.749927 0.916658 0.166728 -3.84997
568 1 0.791476 0.958304 0.208524 -3.84988
286 1 0.874335 0.958376 0.125665 -3.84921
572 1 0.916574 0.916574 0.16682 -3.84913
576 1 0.95831 0.95831 0.208394 -3.84999
290 1 -3.6691e-06 0.0833625 0.250043 -3.84999
291 1 0.0833625 -3.6691e-06 0.250043 -3.84999
295 1 0.125023 0.0416724 0.291699 -3.85
298 1 0.166728 0.0833417 0.250073 -3.84997
299 1 0.250109 -3.30982e-05 0.250109 -3.84997
303 1 0.291724 0.0416768 0.291724 -3.84999
306 1 0.333361 0.0833352 0.250024 -3.85
307 1 0.416676 -2.97904e-06 0.250009 -3.85
311 1 0.458337 0.0416677 0.291673 -3.85
314 1 0.499998 0.0833351 0.250005 -3.85
315 1 0.583324 2.97904e-06 0.250009 -3.85
319 1 0.624982 0.0416703 0.291683 -3.85
322 1 0.666633 0.0833531 0.250026 -3.85
323 1 0.749891 3.30982e-05 0.250109 -3.84997
327 1 0.791625 0.0416814 0.291718 -3.84999
330 1 0.833273 0.0833954 0.250097 -3.84999
331 1 0.916637 3.6691e-06 0.250043 -3.84999
335 1 0.958328 0.0416723 0.29169 -3.85
294 1 0.0416724 0.125023 0.291699 -3.85
339 1 0.0833417 0.166728 0.250073 -3.84997
302 1 0.208369 0.125023 0.291716 -3.85
347 1 0.250024 0.166678 0.250024 -3.85
310 1 0.375017 0.125008 0.291681 -3.85
355 1 0.416674 0.16667 0.250006 -3.85
318 1 0.54166 0.125003 0.291673 -3.85
363 1 0.583319 0.166676 0.25001 -3.85
326 1 0.708317 0.125012 0.291683 -3.85
371 1 0.749977 0.16669 0.250023 -3.85
334 1 0.874974 0.125026 0.291729 -3.84999
379 1 0.916605 0.166727 0.250097 -3.84999
338 1 -3.30982e-05 0.250109 0.250109 -3.84997
342 1 0.0416768 0.291724 0.291724 -3.84999
343 1 0.125023 0.208369 0.291716 -3.85
346 1 0.166678 0.250024 0.250024 -3.85
350 1 0.208345 0.291682 0.291682 -3.85
351 1 0.291682 0.208345 0.291682 -3.85
354 1 0.333342 0.250006 0.250006 -3.85
358 1 0.375005 0.291671 0.291671 -3.85
359 1 0.458335 0.208338 0.291672 -3.85
362 1 0.499997 0.250005 0.250005 -3.85
366 1 0.541664 0.29167 0.29167 -3.85
367 1 0.624991 0.20834 0.291674 -3.85
370 1 0.666654 0.250012 0.250012 -3.85
374 1 0.708325 0.291675 0.291675 -3.85
375 1 0.791653 0.208347 0.291686 -3.85
378 1 0.83331 0.250023 0.250023 -3.85
382 1 0.874988 0.291683 0.291683 -3.85
383 1 0.958319 0.208375 0.291718 -3.84999
387 1 0.0833352 0.333361 0.250024 -3.85
391 1 0.125008 0.375017 0.291681 -3.85
395 1 0.250006 0.333342 0.250006 -3.85
399 1 0.291671 0.375005 0.291671 -3.85
403 1 0.416668 0.333336 0.250003 -3.85
407 1 0.458334 0.375002 0.291669 -3.85
411 1 0.583328 0.333339 0.250006 -3.85
415 1 0.624996 0.375004 0.29167 -3.85
419 1 0.749988 0.333346 0.250012 -3.85
423 1 0.79166 0.375009 0.291674 -3.85
427 1 0.916647 0.333367 0.250026 -3.85
431 1 0.95833 0.375018 0.291683 -3.85
386 1 -2.97904e-06 0.416676 0.250009 -3.85
390 1 0.0416677 0.458337 0.291673 -3.85
394 1 0.16667 0.416674 0.250006 -3.85
398 1 0.208338 0.458335 0.291672 -3.85
402 1 0.333336 0.416668 0.250003 -3.85
406 1 0.375002 0.458334 0.291669 -3.85
410 1 0.499999 0.416669 0.250003 -3.85
414 1 0.541666 0.458334 0.291669 -3.85
418 1 0.666661 0.416672 0.250006 -3.85
422 1 0.70833 0.458336 0.29167 -3.85
426 1 0.833324 0.416681 0.25001 -3.85
430 1 0.874997 0.45834 0.291673 -3.85
434 1 2.97904e-06 0.583324 0.250009 -3.85
435 1 0.0833351 0.499998 0.250005 -3.85
439 1 0.125003 0.54166 0.291673 -3.85
442 1 0.166676 0.583319 0.25001 -3.85
443 1 0.250005 0.499997 0.250005 -3.85
447 1 0.29167 0.541664 0.29167 -3.85
450 1 0.333339 0.583328 0.250006 -3.85
451 1 0.416669 0.499999 0.250003 -3.85
455 1 0.458334 0.541666 0.291669 -3.85
458 1 0.500001 0.583331 0.250003 -3.85
459 1 0.583331 0.500001 0.250003 -3.85
463 1 0.624998 0.541666 0.291669 -3.85
466 1 0.666664 0.583332 0.250003 -3.85
467 1 0.749995 0.500003 0.250005 -3.85
471 1 0.791662 0.541665 0.291672 -3.85
474 1 0.83333 0.583326 0.250006 -3.85
475 1 0.916665 0.500002 0.250005 -3.85
479 1 0.958332 0.541663 0.291673 -3.85
438 1 0.0416703 0.624982 0.291683 -3.85
483 1 0.0833531 0.666633 0.250026 -3.85
446 1 0.20834 0.624991 0.291674 -3.85
491 1 0.250012 0.666654 0.250012 -3.85
454 1 0.375004 0.624996 0.29167 -3.85
499 1 0.416672 0.666661 0.250006 -3.85
462 1 0.541666 0.624998 0.291669 -3.85
507 1 0.583332 0.666664 0.250003 -3.85
470 1 0.708329 0.624995 0.291671 -3.85
515 1 0.749994 0.666658 0.250006 -3.85
478 1 0.874992 0.624983 0.291681 -3.85
523 1 0.916665 0.666639 0.250024 -3.85
482 1 3.30982e-05 0.749891 0.250109 -3.84997
486 1 0.0416814 0.791625 0.291718 -3.84999
487 1 0.125012 0.708317 0.291683 -3.85
490 1 0.16669 0.749977 0.250023 -3.85
494 1 0.208347 0.791653 0.291686 -3.85
495 1 0.291675 0.708325 0.291675 -3.85
498 1 0.333346 0.749988 0.250012 -3.85
502 1 0.375009 0.79166 0.291674 -3.85
503 1 0.458336 0.70833 0.29167 -3.85
506 1 0.500003 0.749995 0.250005 -3.85
510 1 0.541665 0.791662 0.291672 -3.85
511 1 0.624995 0.708329 0.291671 -3.85
514 1 0.666658 0.749994 0.250006 -3.85
518 1 0.708318 0.791655 0.291682 -3.85
519 1 0.791655 0.708318 0.291682 -3.85
522 1 0.833322 0.749976 0.250024 -3.85
526 1 0.874977 0.791631 0.291716 -3.85
527 1 0.958323 0.708276 0.291724 -3.84999
531 1 0.0833954 0.833273 0.250097 -3.84999
535 1 0.125026 0.874974 0.291729 -3.84999
539 1 0.250023 0.83331 0.250023 -3.85
543 1 0.291683 0.874988 0.291683 -3.85
547 1 0.416681 0.833324 0.25001 -3.85
551 1 0.45834 0.874997 0.291673 -3.85
555 1 0.583326 0.83333 0.250006 -3.85
559 1 0.624983 0.874992 0.291681 -3.85
563 1 0.749976 0.833322 0.250024 -3.85
567 1 0.791631 0.874977 0.291716 -3.85
571 1 0.916658 0.833272 0.250073 -3.84997
575 1 0.958328 0.874977 0.291699 -3.85
530 1 3.6691e-06 0.916637 0.250043 -3.84999
534 1 0.0416723 0.958328 0.29169 -3.85
538 1 0.166727 0.916605 0.250097 -3.84999
542 1 0.208375 0.958319 0.291718 -3.84999
546 1 0.333367 0.916647 0.250026 -3.85
550 1 0.375018 0.95833 0.291683 -3.85
554 1 0.500002 0.916665 0.250005 -3.85
558 1 0.541663 0.958332 0.291673 -3.85
562 1 0.666639 0.916665 0.250024 -3.85
566 1 0.708276 0.958323 0.291724 -3.84999
574 1 0.874977 0.958328 0.291699 -3.85
570 1 0.833272 0.916658 0.250073 -3.84997
577 1 -2.09303e-16 0 0.333345 -3.85
578 1 -2.62354e-08 0.0833353 0.416672 -3.85
579 1 0.0833353 -2.62354e-08 0.416672 -3.85
580 1 0.0833389 0.0833389 0.333348 -3.85
581 1 0.0416686 0.0416686 0.375008 -3.85
585 1 0.166685 -7.55707e-06 0.333355 -3.85
586 1 0.166671 0.0833337 0.416673 -3.85
587 1 0.250009 -2.97904e-06 0.416676 -3.85
588 1 0.250024 0.0833352 0.333361 -3.85
589 1 0.208346 0.0416677 0.375014 -3.85
593 1 0.333365 -8.73274e-06 0.333365 -3.85
594 1 0.333343 0.0833345 0.416675 -3.85
597 1 0.375017 0.0416703 0.375017 -3.85
595 1 0.416676 -1.97866e-06 0.416676 -3.85
596 1 0.416675 0.0833345 0.333343 -3.85
601 1 0.5 0 0.333339 -3.85
602 1 0.499999 0.0833358 0.416671 -3.85
603 1 0.583324 1.97866e-06 0.416676 -3.85
604 1 0.583322 0.0833397 0.333344 -3.85
605 1 0.541662 0.0416677 0.375007 -3.85
609 1 0.666635 8.73274e-06 0.333365 -3.85
610 1 0.666656 0.0833397 0.416678 -3.85
611 1 0.749991 2.97904e-06 0.416676 -3.85
612 1 0.749974 0.0833531 0.333367 -3.85
613 1 0.708317 0.0416703 0.375018 -3.85
617 1 0.833315 7.55707e-06 0.333355 -3.85
618 1 0.833327 0.0833377 0.416677 -3.85
621 1 0.874993 0.0416688 0.375014 -3.85
619 1 0.916665 2.62354e-08 0.416672 -3.85
620 1 0.916659 0.0833413 0.333355 -3.85
625 1 -7.55707e-06 0.166685 0.333355 -3.85
627 1 0.0833337 0.166671 0.416673 -3.85
584 1 0.125005 0.125005 0.375012 -3.85
633 1 0.166678 0.166678 0.333359 -3.85
592 1 0.291681 0.125008 0.375017 -3.85
635 1 0.250006 0.16667 0.416674 -3.85
641 1 0.333343 0.16667 0.333343 -3.85
600 1 0.458337 0.125004 0.375006 -3.85
643 1 0.416669 0.16667 0.416669 -3.85
649 1 0.499998 0.166671 0.333338 -3.85
651 1 0.583329 0.166671 0.416671 -3.85
608 1 0.624993 0.125004 0.375007 -3.85
657 1 0.666654 0.166678 0.333346 -3.85
616 1 0.791654 0.125009 0.375023 -3.85
659 1 0.74999 0.166676 0.416681 -3.85
665 1 0.83331 0.16669 0.333371 -3.85
624 1 0.958331 0.125007 0.375014 -3.85
667 1 0.916662 0.166673 0.416677 -3.85
626 1 -2.97904e-06 0.250009 0.416676 -3.85
628 1 0.0833352 0.250024 0.333361 -3.85
629 1 0.0416677 0.208346 0.375014 -3.85
632 1 0.125008 0.291681 0.375017 -3.85
634 1 0.16667 0.250006 0.416674 -3.85
636 1 0.250006 0.250006 0.333342 -3.85
637 1 0.208343 0.208343 0.375015 -3.85
640 1 0.291671 0.291671 0.375005 -3.85
642 1 0.333336 0.250003 0.416668 -3.85
645 1 0.375005 0.208338 0.375005 -3.85
644 1 0.416668 0.250003 0.333336 -3.85
648 1 0.458334 0.291669 0.375002 -3.85
650 1 0.499999 0.250003 0.416669 -3.85
652 1 0.583328 0.250006 0.333339 -3.85
653 1 0.541664 0.208337 0.375003 -3.85
656 1 0.624996 0.29167 0.375004 -3.85
658 1 0.666661 0.250006 0.416672 -3.85
660 1 0.749988 0.250012 0.333346 -3.85
661 1 0.708326 0.20834 0.375009 -3.85
664 1 0.79166 0.291674 0.375009 -3.85
666 1 0.833324 0.25001 0.416681 -3.85
669 1 0.874991 0.208346 0.375023 -3.85
668 1 0.916647 0.250026 0.333367 -3.85
672 1 0.95833 0.291683 0.375018 -3.85
673 1 -8.73274e-06 0.333365 0.333365 -3.85
675 1 0.0833345 0.333343 0.416675 -3.85
677 1 0.0416703 0.375017 0.375017 -3.85
681 1 0.16667 0.333343 0.333343 -3.85
683 1 0.250003 0.333336 0.416668 -3.85
685 1 0.208338 0.375005 0.375005 -3.85
689 1 0.333335 0.333335 0.333335 -3.85
693 1 0.375001 0.375001 0.375001 -3.85
691 1 0.416667 0.333335 0.416667 -3.85
697 1 0.499998 0.333336 0.333336 -3.85
699 1 0.583331 0.333336 0.416669 -3.85
701 1 0.541665 0.375002 0.375002 -3.85
705 1 0.666661 0.333339 0.333339 -3.85
707 1 0.749994 0.333339 0.416672 -3.85
709 1 0.70833 0.375004 0.375004 -3.85
713 1 0.833322 0.333346 0.333346 -3.85
717 1 0.874996 0.375007 0.375007 -3.85
715 1 0.91666 0.333344 0.416678 -3.85
674 1 -1.97866e-06 0.416676 0.416676 -3.85
676 1 0.0833345 0.416675 0.333343 -3.85
680 1 0.125004 0.458337 0.375006 -3.85
682 1 0.16667 0.416669 0.416669 -3.85
684 1 0.250003 0.416668 0.333336 -3.85
688 1 0.291669 0.458334 0.375002 -3.85
690 1 0.333335 0.416667 0.416667 -3.85
692 1 0.416667 0.416667 0.333335 -3.85
696 1 0.458333 0.458333 0.375001 -3.85
698 1 0.499999 0.416668 0.416668 -3.85
700 1 0.583331 0.416669 0.333336 -3.85
704 1 0.624998 0.458335 0.375002 -3.85
706 1 0.666664 0.416669 0.416669 -3.85
708 1 0.749994 0.416672 0.333339 -3.85
712 1 0.791663 0.458336 0.375003 -3.85
714 1 0.833329 0.416671 0.416671 -3.85
716 1 0.91666 0.416678 0.333344 -3.85
720 1 0.958332 0.458338 0.375007 -3.85
721 1 1.04652e-16 0.5 0.333339 -3.85
722 1 1.97866e-06 0.583324 0.416676 -3.85
723 1 0.0833358 0.499999 0.416671 -3.85
724 1 0.0833397 0.583322 0.333344 -3.85
725 1 0.0416677 0.541662 0.375007 -3.85
729 1 0.166671 0.499998 0.333338 -3.85
730 1 0.166671 0.583329 0.416671 -3.85
731 1 0.250003 0.499999 0.416669 -3.85
732 1 0.250006 0.583328 0.333339 -3.85
733 1 0.208337 0.541664 0.375003 -3.85
737 1 0.333336 0.499998 0.333336 -3.85
738 1 0.333336 0.583331 0.416669 -3.85
741 1 0.375002 0.541665 0.375002 -3.85
739 1 0.416668 0.499999 0.416668 -3.85
740 1 0.416669 0.583331 0.333336 -3.85
745 1 0.5 0.5 0.333335 -3.85
746 1 0.500001 0.583332 0.416668 -3.85
747 1 0.583332 0.500001 0.416668 -3.85
748 1 0.583333 0.583333 0.333335 -3.85
749 1 0.541667 0.541667 0.375001 -3.85
753 1 0.666664 0.500002 0.333336 -3.85
754 1 0.666665 0.583333 0.416667 -3.85
755 1 0.749997 0.500001 0.416669 -3.85
756 1 0.749997 0.583332 0.333336 -3.85
757 1 0.708331 0.541666 0.375002 -3.85
761 1 0.833329 0.500002 0.333338 -3.85
762 1 0.83333 0.583331 0.416669 -3.85
765 1 0.874996 0.541663 0.375006 -3.85
763 1 0.916664 0.500001 0.416671 -3.85
764 1 0.916666 0.583325 0.333343 -3.85
769 1 8.73274e-06 0.666635 0.333365 -3.85
771 1 0.0833397 0.666656 0.416678 -3.85
728 1 0.125004 0.624993 0.375007 -3.85
777 1 0.166678 0.666654 0.333346 -3.85
736 1 0.29167 0.624996 0.375004 -3.85
779 1 0.250006 0.666661 0.416672 -3.85
785 1 0.333339 0.666661 0.333339 -3.85
744 1 0.458335 0.624998 0.375002 -3.85
787 1 0.416669 0.666664 0.416669 -3.85
793 1 0.500002 0.666664 0.333336 -3.85
795 1 0.583333 0.666665 0.416667 -3.85
752 1 0.624999 0.624999 0.375001 -3.85
801 1 0.666665 0.666665 0.333335 -3.85
760 1 0.791662 0.624995 0.375005 -3.85
803 1 0.749997 0.666664 0.416668 -3.85
809 1 0.83333 0.666657 0.333343 -3.85
768 1 0.95833 0.624983 0.375017 -3.85
811 1 0.916666 0.666657 0.416675 -3.85
770 1 2.97904e-06 0.749991 0.416676 -3.85
772 1 0.0833531 0.749974 0.333367 -3.85
773 1 0.0416703 0.708317 0.375018 -3.85
776 1 0.125009 0.791654 0.375023 -3.85
778 1 0.166676 0.74999 0.416681 -3.85
780 1 0.250012 0.749988 0.333346 -3.85
781 1 0.20834 0.708326 0.375009 -3.85
784 1 0.291674 0.79166 0.375009 -3.85
786 1 0.333339 0.749994 0.416672 -3.85
789 1 0.375004 0.70833 0.375004 -3.85
788 1 0.416672 0.749994 0.333339 -3.85
792 1 0.458336 0.791663 0.375003 -3.85
794 1 0.500001 0.749997 0.416669 -3.85
796 1 0.583332 0.749997 0.333336 -3.85
797 1 0.541666 0.708331 0.375002 -3.85
800 1 0.624995 0.791662 0.375005 -3.85
802 1 0.666664 0.749997 0.416668 -3.85