ITEM: TIMESTEP
1
ITEM: NUMBER OF ATOMS
1728
ITEM: BOX BOUNDS pp pp pp
-1.6974000000000000e+01 1.6974000000000000e+01
-1.6974000000000000e+01 1.6974000000000000e+01
-1.6974000000000000e+01 1.6974000000000000e+01
ITEM: ATOMS id type xs ys zs c_eng
1 1 0 0 0 -3.85
2 1 0 0.0833333 0.0833333 -3.85
3 1 0.0833333 0 0.0833333 -3.85
4 1 0.0833333 0.0833333 0 -3.85
5 1 0.0416667 0.0416667 0.0416667 -3.85
6 1 0.166667 0 0 -3.85
7 1 0.166667 0.0833333 0.0833333 -3.85
8 1 0.25 0 0.0833333 -3.85
9 1 0.25 0.0833333 0 -3.85
10 1 0.208333 0.0416667 0.0416667 -3.85
11 1 0.333333 0 0 -3.85
12 1 0.333333 0.0833333 0.0833333 -3.85
13 1 0.375 0.0416667 0.0416667 -3.85
14 1 0.416667 0 0.0833333 -3.85
15 1 0.416667 0.0833333 0 -3.85
16 1 0.5 0 0 -3.85
17 1 0.5 0.0833333 0.0833333 -3.85
18 1 0.583333 0 0.0833333 -3.85
19 1 0.583333 0.0833333 0 -3.85
20 1 0.541667 0.0416667 0.0416667 -3.85
21 1 0.666667 0 0 -3.85
22 1 0.666667 0.0833333 0.0833333 -3.85
23 1 0.75 0 0.0833333 -3.85
24 1 0.75 0.0833333 0 -3.85
25 1 0.708333 0.0416667 0.0416667 -3.85
26 1 0.833333 0 0 -3.85
27 1 0.833333 0.0833333 0.0833333 -3.85
28 1 0.875 0.0416667 0.0416667 -3.85
29 1 0.916667 0 0.0833333 -3.85
30 1 0.916667 0.0833333 0 -3.85
31 1 0 0.166667 0 -3.85
32 1 0.0833333 0.166667 0.0833333 -3.85
33 1 0.125 0.125 0.0416667 -3.85
34 1 0.166667 0.166667 0 -3.85
35 1 0.291667 0.125 0.0416667 -3.85
36 1 0.25 0.166667 0.0833333 -3.85
37 1 0.333333 0.166667 0 -3.85
38 1 0.458333 0.125 0.0416667 -3.85
39 1 0.416667 0.166667 0.0833333 -3.85
40 1 0.5 0.166667 0 -3.85
41 1 0.583333 0.166667 0.0833333 -3.85
42 1 0.625 0.125 0.0416667 -3.85
43 1 0.666667 0.166667 0 -3.85
44 1 0.791667 0.125 0.0416667 -3.85
45 1 0.75 0.166667 0.0833333 -3.85
46 1 0.833333 0.166667 0 -3.85
47 1 0.958333 0.125 0.0416667 -3.85
48 1 0.916667 0.166667 0.0833333 -3.85
49 1 0 0.25 0.0833333 -3.85
50 1 0.0833333 0.25 0 -3.85
51 1 0.0416667 0.208333 0.0416667 -3.85
52 1 0.125 0.291667 0.0416667 -3.85
53 1 0.166667 0.25 0.0833333 -3.85
54 1 0.25 0.25 0 -3.85
55 1 0.208333 0.208333 0.0416667 -3.85
56 1 0.291667 0.291667 0.0416667 -3.85
57 1 0.333333 0.25 0.0833333 -3.85
58 1 0.375 0.208333 0.0416667 -3.85
59 1 0.416667 0.25 0 -3.85
60 1 0.458333 0.291667 0.0416667 -3.85
61 1 0.5 0.25 0.0833333 -3.85
62 1 0.583333 0.25 0 -3.85
63 1 0.541667 0.208333 0.0416667 -3.85
64 1 0.625 0.291667 0.0416667 -3.85
65 1 0.666667 0.25 0.0833333 -3.85
66 1 0.75 0.25 0 -3.85
67 1 0.708333 0.208333 0.0416667 -3.85
68 1 0.791667 0.291667 0.0416667 -3.85
69 1 0.833333 0.25 0.0833333 -3.85
70 1 0.875 0.208333 0.0416667 -3.85
71 1 0.916667 0.25 0 -3.85
72 1 0.958333 0.291667 0.0416667 -3.85
73 1 0 0.333333 0 -3.85
74 1 0.0833333 0.333333 0.0833333 -3.85
75 1 0.0416667 0.375 0.0416667 -3.85
76 1 0.166667 0.333333 0 -3.85
77 1 0.25 0.333333 0.0833333 -3.85
78 1 0.208333 0.375 0.0416667 -3.85
79 1 0.333333 0.333333 0 -3.85
80 1 0.375 0.375 0.0416667 -3.85
81 1 0.416667 0.333333 0.0833333 -3.85
82 1 0.5 0.333333 0 -3.85
83 1 0.583333 0.333333 0.0833333 -3.85
84 1 0.541667 0.375 0.0416667 -3.85
85 1 0.666667 0.333333 0 -3.85
86 1 0.75 0.333333 0.0833333 -3.85
87 1 0.708333 0.375 0.0416667 -3.85
88 1 0.833333 0.333333 0 -3.85
89 1 0.875 0.375 0.0416667 -3.85
90 1 0.916667 0.333333 0.0833333 -3.85
91 1 0 0.416667 0.0833333 -3.85
92 1 0.0833333 0.416667 0 -3.85
93 1 0.125 0.458333 0.0416667 -3.85
94 1 0.166667 0.416667 0.0833333 -3.85
95 1 0.25 0.416667 0 -3.85
96 1 0.291667 0.458333 0.0416667 -3.85
97 1 0.333333 0.416667 0.0833333 -3.85
98 1 0.416667 0.416667 0 -3.85
99 1 0.458333 0.458333 0.0416667 -3.85
100 1 0.5 0.416667 0.0833333 -3.85
101 1 0.583333 0.416667 0 -3.85
102 1 0.625 0.458333 0.0416667 -3.85
103 1 0.666667 0.416667 0.0833333 -3.85
104 1 0.75 0.416667 0 -3.85
105 1 0.791667 0.458333 0.0416667 -3.85
106 1 0.833333 0.416667 0.0833333 -3.85
107 1 0.916667 0.416667 0 -3.85
108 1 0.958333 0.458333 0.0416667 -3.85
109 1 0 0.5 0 -3.85
110 1 0 0.583333 0.0833333 -3.85
111 1 0.0833333 0.5 0.0833333 -3.85
112 1 0.0833333 0.583333 0 -3.85
113 1 0.0416667 0.541667 0.0416667 -3.85
114 1 0.166667 0.5 0 -3.85
115 1 0.166667 0.583333 0.0833333 -3.85
116 1 0.25 0.5 0.0833333 -3.85
117 1 0.25 0.583333 0 -3.85
118 1 0.208333 0.541667 0.0416667 -3.85
119 1 0.333333 0.5 0 -3.85
120 1 0.333333 0.583333 0.0833333 -3.85
121 1 0.375 0.541667 0.0416667 -3.85
122 1 0.416667 0.5 0.0833333 -3.85
123 1 0.416667 0.583333 0 -3.85
124 1 0.5 0.5 0 -3.85
125 1 0.5 0.583333 0.0833333 -3.85
126 1 0.583333 0.5 0.0833333 -3.85
127 1 0.583333 0.583333 0 -3.85
128 1 0.541667 0.541667 0.0416667 -3.85
129 1 0.666667 0.5 0 -3.85
130 1 0.666667 0.583333 0.0833333 -3.85
131 1 0.75 0.5 0.0833333 -3.85
132 1 0.75 0.583333 0 -3.85
133 1 0.708333 0.541667 0.0416667 -3.85
134 1 0.833333 0.5 0 -3.85
135 1 0.833333 0.583333 0.0833333 -3.85
136 1 0.875 0.541667 0.0416667 -3.85
137 1 0.916667 0.5 0.0833333 -3.85
138 1 0.916667 0.583333 0 -3.85
139 1 0 0.666667 0 -3.85
140 1 0.0833333 0.666667 0.0833333 -3.85
141 1 0.125 0.625 0.0416667 -3.85
142 1 0.166667 0.666667 0 -3.85
143 1 0.291667 0.625 0.0416667 -3.85
144 1 0.25 0.666667 0.0833333 -3.85
145 1 0.333333 0.666667 0 -3.85
146 1 0.458333 0.625 0.0416667 -3.85
147 1 0.416667 0.666667 0.0833333 -3.85
148 1 0.5 0.666667 0 -3.85
149 1 0.583333 0.666667 0.0833333 -3.85
150 1 0.625 0.625 0.0416667 -3.85
151 1 0.666667 0.666667 0 -3.85
152 1 0.791667 0.625 0.0416667 -3.85
153 1 0.75 0.666667 0.0833333 -3.85
154 1 0.833333 0.666667 0 -3.85
155 1 0.958333 0.625 0.0416667 -3.85
156 1 0.916667 0.666667 0.0833333 -3.85
157 1 0 0.75 0.0833333 -3.85
158 1 0.0833333 0.75 0 -3.85
159 1 0.0416667 0.708333 0.0416667 -3.85
160 1 0.125 0.791667 0.0416667 -3.85
161 1 0.166667 0.75 0.0833333 -3.85
162 1 0.25 0.75 0 -3.85
163 1 0.208333 0.708333 0.0416667 -3.85
164 1 0.291667 0.791667 0.0416667 -3.85
165 1 0.333333 0.75 0.0833333 -3.85
166 1 0.375 0.708333 0.0416667 -3.85
167 1 0.416667 0.75 0 -3.85
168 1 0.458333 0.791667 0.0416667 -3.85
169 1 0.5 0.75 0.0833333 -3.85
170 1 0.583333 0.75 0 -3.85
171 1 0.541667 0.708333 0.0416667 -3.85
172 1 0.625 0.791667 0.0416667 -3.85
173 1 0.666667 0.75 0.0833333 -3.85
174 1 0.75 0.75 0 -3.85
175 1 0.708333 0.708333 0.0416667 -3.85
176 1 0.791667 0.791667 0.0416667 -3.85
177 1 0.833333 0.75 0.0833333 -3.85
178 1 0.875 0.708333 0.0416667 -3.85
179 1 0.916667 0.75 0 -3.85
180 1 0.958333 0.791667 0.0416667 -3.85
181 1 0 0.833333 0 -3.85
182 1 0.0833333 0.833333 0.0833333 -3.85
183 1 0.0416667 0.875 0.0416667 -3.85
184 1 0.166667 0.833333 0 -3.85
185 1 0.25 0.833333 0.0833333 -3.85
186 1 0.208333 0.875 0.0416667 -3.85
187 1 0.333333 0.833333 0 -3.85
188 1 0.375 0.875 0.0416667 -3.85
189 1 0.416667 0.833333 0.0833333 -3.85
190 1 0.5 0.833333 0 -3.85
191 1 0.583333 0.833333 0.0833333 -3.85
192 1 0.541667 0.875 0.0416667 -3.85
193 1 0.666667 0.833333 0 -3.85
194 1 0.75 0.833333 0.0833333 -3.85
195 1 0.708333 0.875 0.0416667 -3.85
196 1 0.833333 0.833333 0 -3.85
197 1 0.875 0.875 0.0416667 -3.85
198 1 0.916667 0.833333 0.0833333 -3.85
199 1 0 0.916667 0.0833333 -3.85
200 1 0.0833333 0.916667 0 -3.85
201 1 0.125 0.958333 0.0416667 -3.85
202 1 0.166667 0.916667 0.0833333 -3.85
203 1 0.25 0.916667 0 -3.85
204 1 0.291667 0.958333 0.0416667 -3.85
205 1 0.333333 0.916667 0.0833333 -3.85
206 1 0.416667 0.916667 0 -3.85
207 1 0.458333 0.958333 0.0416667 -3.85
208 1 0.5 0.916667 0.0833333 -3.85
209 1 0.583333 0.916667 0 -3.85
210 1 0.625 0.958333 0.0416667 -3.85
211 1 0.666667 0.916667 0.0833333 -3.85
212 1 0.75 0.916667 0 -3.85
213 1 0.791667 0.958333 0.0416667 -3.85
214 1 0.833333 0.916667 0.0833333 -3.85
215 1 0.916667 0.916667 0 -3.85
216 1 0.958333 0.958333 0.0416667 -3.85
217 1 0 0 0.166667 -3.85
218 1 0.0833333 0.0833333 0.166667 -3.85
219 1 0.0416667 0.0416667 0.208333 -3.85
220 1 0.125 0.0416667 0.125 -3.85
221 1 0.166667 0 0.166667 -3.85
222 1 0.291667 0.0416667 0.125 -3.85
223 1 0.25 0.0833333 0.166667 -3.85
224 1 0.208333 0.0416667 0.208333 -3.85
225 1 0.333333 0 0.166667 -3.85
226 1 0.375 0.0416667 0.208333 -3.85
227 1 0.458333 0.0416667 0.125 -3.85
228 1 0.416667 0.0833333 0.166667 -3.85
229 1 0.5 0 0.166667 -3.85
230 1 0.583333 0.0833333 0.166667 -3.85
231 1 0.541667 0.0416667 0.208333 -3.85
232 1 0.625 0.0416667 0.125 -3.85
233 1 0.666667 0 0.166667 -3.85
234 1 0.791667 0.0416667 0.125 -3.85
235 1 0.75 0.0833333 0.166667 -3.85
236 1 0.708333 0.0416667 0.208333 -3.85
237 1 0.833333 0 0.166667 -3.85
238 1 0.875 0.0416667 0.208333 -3.85
239 1 0.958333 0.0416667 0.125 -3.85
240 1 0.916667 0.0833333 0.166667 -3.85
241 1 0.0416667 0.125 0.125 -3.85
242 1 0 0.166667 0.166667 -3.85
243 1 0.125 0.125 0.208333 -3.85
244 1 0.166667 0.166667 0.166667 -3.85
245 1 0.208333 0.125 0.125 -3.85
246 1 0.291667 0.125 0.208333 -3.85
247 1 0.375 0.125 0.125 -3.85
248 1 0.333333 0.166667 0.166667 -3.85
249 1 0.458333 0.125 0.208333 -3.85
250 1 0.541667 0.125 0.125 -3.85
251 1 0.5 0.166667 0.166667 -3.85
252 1 0.625 0.125 0.208333 -3.85
253 1 0.666667 0.166667 0.166667 -3.85
254 1 0.708333 0.125 0.125 -3.85
255 1 0.791667 0.125 0.208333 -3.85
256 1 0.875 0.125 0.125 -3.85
257 1 0.833333 0.166667 0.166667 -3.85
258 1 0.958333 0.125 0.208333 -3.85
259 1 0.0416667 0.291667 0.125 -3.85
260 1 0.0833333 0.25 0.166667 -3.85
261 1 0.0416667 0.208333 0.208333 -3.85
262 1 0.125 0.208333 0.125 -3.85
263 1 0.125 0.291667 0.208333 -3.85
264 1 0.208333 0.291667 0.125 -3.85
265 1 0.291667 0.208333 0.125 -3.85
266 1 0.25 0.25 0.166667 -3.85
267 1 0.208333 0.208333 0.208333 -3.85
268 1 0.291667 0.291667 0.208333 -3.85
269 1 0.375 0.291667 0.125 -3.85
270 1 0.375 0.208333 0.208333 -3.85
271 1 0.458333 0.208333 0.125 -3.85
272 1 0.416667 0.25 0.166667 -3.85
273 1 0.458333 0.291667 0.208333 -3.85
274 1 0.541667 0.291667 0.125 -3.85
275 1 0.583333 0.25 0.166667 -3.85
276 1 0.541667 0.208333 0.208333 -3.85
277 1 0.625 0.208333 0.125 -3.85
278 1 0.625 0.291667 0.208333 -3.85
279 1 0.708333 0.291667 0.125 -3.85
280 1 0.791667 0.208333 0.125 -3.85
281 1 0.75 0.25 0.166667 -3.85
282 1 0.708333 0.208333 0.208333 -3.85
283 1 0.791667 0.291667 0.208333 -3.85
284 1 0.875 0.291667 0.125 -3.85
285 1 0.875 0.208333 0.208333 -3.85
286 1 0.958333 0.208333 0.125 -3.85
287 1 0.916667 0.25 0.166667 -3.85
288 1 0.958333 0.291667 0.208333 -3.85
289 1 0 0.333333 0.166667 -3.85
290 1 0.0416667 0.375 0.208333 -3.85
291 1 0.125 0.375 0.125 -3.85
292 1 0.166667 0.333333 0.166667 -3.85
293 1 0.291667 0.375 0.125 -3.85
294 1 0.208333 0.375 0.208333 -3.85
295 1 0.333333 0.333333 0.166667 -3.85
296 1 0.375 0.375 0.208333 -3.85
297 1 0.458333 0.375 0.125 -3.85
298 1 0.5 0.333333 0.166667 -3.85
299 1 0.541667 0.375 0.208333 -3.85
300 1 0.625 0.375 0.125 -3.85
301 1 0.666667 0.333333 0.166667 -3.85
302 1 0.791667 0.375 0.125 -3.85
303 1 0.708333 0.375 0.208333 -3.85
304 1 0.833333 0.333333 0.166667 -3.85
305 1 0.875 0.375 0.208333 -3.85
306 1 0.958333 0.375 0.125 -3.85
307 1 0.0416667 0.458333 0.125 -3.85
308 1 0.0833333 0.416667 0.166667 -3.85
309 1 0.125 0.458333 0.208333 -3.85
310 1 0.208333 0.458333 0.125 -3.85
311 1 0.25 0.416667 0.166667 -3.85
312 1 0.291667 0.458333 0.208333 -3.85
313 1 0.375 0.458333 0.125 -3.85
314 1 0.416667 0.416667 0.166667 -3.85
315 1 0.458333 0.458333 0.208333 -3.85
316 1 0.541667 0.458333 0.125 -3.85
317 1 0.583333 0.416667 0.166667 -3.85
318 1 0.625 0.458333 0.208333 -3.85
319 1 0.708333 0.458333 0.125 -3.85
320 1 0.75 0.416667 0.166667 -3.85
321 1 0.791667 0.458333 0.208333 -3.85
322 1 0.875 0.458333 0.125 -3.85
323 1 0.916667 0.416667 0.166667 -3.85
324 1 0.958333 0.458333 0.208333 -3.85
325 1 0 0.5 0.166667 -3.85
326 1 0.0833333 0.583333 0.166667 -3.85
327 1 0.0416667 0.541667 0.208333 -3.85
328 1 0.125 0.541667 0.125 -3.85
329 1 0.166667 0.5 0.166667 -3.85
330 1 0.291667 0.541667 0.125 -3.85
331 1 0.25 0.583333 0.166667 -3.85
332 1 0.208333 0.541667 0.208333 -3.85
333 1 0.333333 0.5 0.166667 -3.85
334 1 0.375 0.541667 0.208333 -3.85
335 1 0.458333 0.541667 0.125 -3.85
336 1 0.416667 0.583333 0.166667 -3.85
337 1 0.5 0.5 0.166667 -3.85
338 1 0.583333 0.583333 0.166667 -3.85
339 1 0.541667 0.541667 0.208333 -3.85
340 1 0.625 0.541667 0.125 -3.85
341 1 0.666667 0.5 0.166667 -3.85
342 1 0.791667 0.541667 0.125 -3.85
343 1 0.75 0.583333 0.166667 -3.85
344 1 0.708333 0.541667 0.208333 -3.85
345 1 0.833333 0.5 0.166667 -3.85
346 1 0.875 0.541667 0.208333 -3.85
347 1 0.958333 0.541667 0.125 -3.85
348 1 0.916667 0.583333 0.166667 -3.85
349 1 0.0416667 0.625 0.125 -3.85
350 1 0 0.666667 0.166667 -3.85
351 1 0.125 0.625 0.208333 -3.85
352 1 0.166667 0.666667 0.166667 -3.85
353 1 0.208333 0.625 0.125 -3.85
354 1 0.291667 0.625 0.208333 -3.85
355 1 0.375 0.625 0.125 -3.85
356 1 0.333333 0.666667 0.166667 -3.85
357 1 0.458333 0.625 0.208333 -3.85
358 1 0.541667 0.625 0.125 -3.85
359 1 0.5 0.666667 0.166667 -3.85
360 1 0.625 0.625 0.208333 -3.85
361 1 0.666667 0.666667 0.166667 -3.85
362 1 0.708333 0.625 0.125 -3.85
363 1 0.791667 0.625 0.208333 -3.85
364 1 0.875 0.625 0.125 -3.85
365 1 0.833333 0.666667 0.166667 -3.85
366 1 0.958333 0.625 0.208333 -3.85
367 1 0.0416667 0.791667 0.125 -3.85
368 1 0.0833333 0.75 0.166667 -3.85
369 1 0.0416667 0.708333 0.208333 -3.85
370 1 0.125 0.708333 0.125 -3.85
371 1 0.125 0.791667 0.208333 -3.85
372 1 0.208333 0.791667 0.125 -3.85
373 1 0.291667 0.708333 0.125 -3.85
374 1 0.25 0.75 0.166667 -3.85
375 1 0.208333 0.708333 0.208333 -3.85
376 1 0.291667 0.791667 0.208333 -3.85
377 1 0.375 0.791667 0.125 -3.85
378 1 0.375 0.708333 0.208333 -3.85
379 1 0.458333 0.708333 0.125 -3.85
380 1 0.416667 0.75 0.166667 -3.85
381 1 0.458333 0.791667 0.208333 -3.85
382 1 0.541667 0.791667 0.125 -3.85
383 1 0.583333 0.75 0.166667 -3.85
384 1 0.541667 0.708333 0.208333 -3.85
385 1 0.625 0.708333 0.125 -3.85
386 1 0.625 0.791667 0.208333 -3.85
387 1 0.708333 0.791667 0.125 -3.85
388 1 0.791667 0.708333 0.125 -3.85
389 1 0.75 0.75 0.166667 -3.85
390 1 0.708333 0.708333 0.208333 -3.85
391 1 0.791667 0.791667 0.208333 -3.85
392 1 0.875 0.791667 0.125 -3.85
393 1 0.875 0.708333 0.208333 -3.85
394 1 0.958333 0.708333 0.125 -3.85
395 1 0.916667 0.75 0.166667 -3.85
396 1 0.958333 0.791667 0.208333 -3.85
397 1 0 0.833333 0.166667 -3.85
398 1 0.0416667 0.875 0.208333 -3.85
399 1 0.125 0.875 0.125 -3.85
400 1 0.166667 0.833333 0.166667 -3.85
401 1 0.291667 0.875 0.125 -3.85
402 1 0.208333 0.875 0.208333 -3.85
403 1 0.333333 0.833333 0.166667 -3.85
404 1 0.375 0.875 0.208333 -3.85
405 1 0.458333 0.875 0.125 -3.85
406 1 0.5 0.833333 0.166667 -3.85
407 1 0.541667 0.875 0.208333 -3.85
408 1 0.625 0.875 0.125 -3.85
409 1 0.666667 0.833333 0.166667 -3.85
410 1 0.791667 0.875 0.125 -3.85
411 1 0.708333 0.875 0.208333 -3.85
412 1 0.833333 0.833333 0.166667 -3.85
413 1 0.875 0.875 0.208333 -3.85
414 1 0.958333 0.875 0.125 -3.85
415 1 0.0416667 0.958333 0.125 -3.85
416 1 0.0833333 0.916667 0.166667 -3.85
417 1 0.125 0.958333 0.208333 -3.85
418 1 0.208333 0.958333 0.125 -3.85
419 1 0.25 0.916667 0.166667 -3.85
420 1 0.291667 0.958333 0.208333 -3.85
421 1 0.375 0.958333 0.125 -3.85
422 1 0.416667 0.916667 0.166667 -3.85
423 1 0.458333 0.958333 0.208333 -3.85
424 1 0.541667 0.958333 0.125 -3.85
425 1 0.583333 0.916667 0.166667 -3.85
426 1 0.625 0.958333 0.208333 -3.85
427 1 0.708333 0.958333 0.125 -3.85
428 1 0.75 0.916667 0.166667 -3.85
429 1 0.791667 0.958333 0.208333 -3.85
430 1 0.875 0.958333 0.125 -3.85
431 1 0.916667 0.916667 0.166667 -3.85
432 1 0.958333 0.958333 0.208333 -3.85
433 1 0 0.0833333 0.25 -3.85
434 1 0.0833333 0 0.25 -3.85
435 1 0.125 0.0416667 0.291667 -3.85
436 1 0.166667 0.0833333 0.25 -3.85
437 1 0.25 0 0.25 -3.85
438 1 0.291667 0.0416667 0.291667 -3.85
439 1 0.333333 0.0833333 0.25 -3.85
440 1 0.416667 0 0.25 -3.85
441 1 0.458333 0.0416667 0.291667 -3.85
442 1 0.5 0.0833333 0.25 -3.85
443 1 0.583333 0 0.25 -3.85
444 1 0.625 0.0416667 0.291667 -3.85
445 1 0.666667 0.0833333 0.25 -3.85
446 1 0.75 0 0.25 -3.85
447 1 0.791667 0.0416667 0.291667 -3.85
448 1 0.833333 0.0833333 0.25 -3.85
449 1 0.916667 0 0.25 -3.85
450 1 0.958333 0.0416667 0.291667 -3.85
451 1 0.0416667 0.125 0.291667 -3.85
452 1 0.0833333 0.166667 0.25 -3.85
453 1 0.208333 0.125 0.291667 -3.85
454 1 0.25 0.166667 0.25 -3.85
455 1 0.375 0.125 0.291667 -3.85
456 1 0.416667 0.166667 0.25 -3.85
457 1 0.541667 0.125 0.291667 -3.85
458 1 0.583333 0.166667 0.25 -3.85
459 1 0.708333 0.125 0.291667 -3.85
460 1 0.75 0.166667 0.25 -3.85
461 1 0.875 0.125 0.291667 -3.85
462 1 0.916667 0.166667 0.25 -3.85
463 1 0 0.25 0.25 -3.85
464 1 0.0416667 0.291667 0.291667 -3.85
465 1 0.125 0.208333 0.291667 -3.85
466 1 0.166667 0.25 0.25 -3.85
467 1 0.208333 0.291667 0.291667 -3.85
468 1 0.291667 0.208333 0.291667 -3.85
469 1 0.333333 0.25 0.25 -3.85
470 1 0.375 0.291667 0.291667 -3.85
471 1 0.458333 0.208333 0.291667 -3.85
472 1 0.5 0.25 0.25 -3.85
473 1 0.541667 0.291667 0.291667 -3.85
474 1 0.625 0.208333 0.291667 -3.85
475 1 0.666667 0.25 0.25 -3.85
476 1 0.708333 0.291667 0.291667 -3.85
477 1 0.791667 0.208333 0.291667 -3.85
478 1 0.833333 0.25 0.25 -3.85
479 1 0.875 0.291667 0.291667 -3.85
480 1 0.958333 0.208333 0.291667 -3.85
481 1 0.0833333 0.333333 0.25 -3.85
482 1 0.125 0.375 0.291667 -3.85
483 1 0.25 0.333333 0.25 -3.85
484 1 0.291667 0.375 0.291667 -3.85
485 1 0.416667 0.333333 0.25 -3.85
486 1 0.458333 0.375 0.291667 -3.85
487 1 0.583333 0.333333 0.25 -3.85
488 1 0.625 0.375 0.291667 -3.85
489 1 0.75 0.333333 0.25 -3.85
490 1 0.791667 0.375 0.291667 -3.85
491 1 0.916667 0.333333 0.25 -3.85
492 1 0.958333 0.375 0.291667 -3.85
493 1 0 0.416667 0.25 -3.85
494 1 0.0416667 0.458333 0.291667 -3.85
495 1 0.166667 0.416667 0.25 -3.85
496 1 0.208333 0.458333 0.291667 -3.85
497 1 0.333333 0.416667 0.25 -3.85
498 1 0.375 0.458333 0.291667 -3.85
499 1 0.5 0.416667 0.25 -3.85
500 1 0.541667 0.458333 0.291667 -3.85
501 1 0.666667 0.416667 0.25 -3.85
502 1 0.708333 0.458333 0.291667 -3.85
503 1 0.833333 0.416667 0.25 -3.85
504 1 0.875 0.458333 0.291667 -3.85
505 1 0 0.583333 0.25 -3.85
506 1 0.0833333 0.5 0.25 -3.85
507 1 0.125 0.541667 0.291667 -3.85
508 1 0.166667 0.583333 0.25 -3.85
509 1 0.25 0.5 0.25 -3.85
510 1 0.291667 0.541667 0.291667 -3.85
511 1 0.333333 0.583333 0.25 -3.85
512 1 0.416667 0.5 0.25 -3.85
513 1 0.458333 0.541667 0.291667 -3.85
514 1 0.5 0.583333 0.25 -3.85
515 1 0.583333 0.5 0.25 -3.85
516 1 0.625 0.541667 0.291667 -3.85
517 1 0.666667 0.583333 0.25 -3.85
518 1 0.75 0.5 0.25 -3.85
519 1 0.791667 0.541667 0.291667 -3.85
520 1 0.833333 0.583333 0.25 -3.85
521 1 0.916667 0.5 0.25 -3.85
522 1 0.958333 0.541667 0.291667 -3.85
523 1 0.0416667 0.625 0.291667 -3.85
524 1 0.0833333 0.666667 0.25 -3.85
525 1 0.208333 0.625 0.291667 -3.85
526 1 0.25 0.666667 0.25 -3.85
527 1 0.375 0.625 0.291667 -3.85
528 1 0.416667 0.666667 0.25 -3.85
529 1 0.541667 0.625 0.291667 -3.85
530 1 0.583333 0.666667 0.25 -3.85
531 1 0.708333 0.625 0.291667 -3.85
532 1 0.75 0.666667 0.25 -3.85
533 1 0.875 0.625 0.291667 -3.85
534 1 0.916667 0.666667 0.25 -3.85
535 1 0 0.75 0.25 -3.85
536 1 0.0416667 0.791667 0.291667 -3.85
537 1 0.125 0.708333 0.291667 -3.85
538 1 0.166667 0.75 0.25 -3.85
539 1 0.208333 0.791667 0.291667 -3.85
540 1 0.291667 0.708333 0.291667 -3.85
541 1 0.333333 0.75 0.25 -3.85
542 1 0.375 0.791667 0.291667 -3.85
543 1 0.458333 0.708333 0.291667 -3.85
544 1 0.5 0.75 0.25 -3.85
545 1 0.541667 0.791667 0.291667 -3.85
546 1 0.625 0.708333 0.291667 -3.85
547 1 0.666667 0.75 0.25 -3.85
548 1 0.708333 0.791667 0.291667 -3.85
549 1 0.791667 0.708333 0.291667 -3.85
550 1 0.833333 0.75 0.25 -3.85
551 1 0.875 0.791667 0.291667 -3.85
552 1 0.958333 0.708333 0.291667 -3.85
553 1 0.0833333 0.833333 0.25 -3.85
554 1 0.125 0.875 0.291667 -3.85
555 1 0.25 0.833333 0.25 -3.85
556 1 0.291667 0.875 0.291667 -3.85
557 1 0.416667 0.833333 0.25 -3.85
558 1 0.458333 0.875 0.291667 -3.85
559 1 0.583333 0.833333 0.25 -3.85
560 1 0.625 0.875 0.291667 -3.85
561 1 0.75 0.833333 0.25 -3.85
562 1 0.791667 0.875 0.291667 -3.85
563 1 0.916667 0.833333 0.25 -3.85
564 1 0.958333 0.875 0.291667 -3.85
565 1 0 0.916667 0.25 -3.85
566 1 0.0416667 0.958333 0.291667 -3.85
567 1 0.166667 0.916667 0.25 -3.85
568 1 0.208333 0.958333 0.291667 -3.85
569 1 0.333333 0.916667 0.25 -3.85
570 1 0.375 0.958333 0.291667 -3.85
571 1 0.5 0.916667 0.25 -3.85
572 1 0.541667 0.958333 0.291667 -3.85
573 1 0.666667 0.916667 0.25 -3.85
574 1 0.708333 0.958333 0.291667 -3.85
575 1 0.833333 0.916667 0.25 -3.85
576 1 0.875 0.958333 0.291667 -3.85
577 1 0 0 0.333333 -3.85
578 1 0 0.0833333 0.416667 -3.85
579 1 0.0833333 0 0.416667 -3.85
580 1 0.0833333 0.0833333 0.333333 -3.85
581 1 0.0416667 0.0416667 0.375 -3.85
582 1 0.166667 0 0.333333 -3.85
583 1 0.166667 0.0833333 0.416667 -3.85
584 1 0.25 0 0.416667 -3.85
585 1 0.25 0.0833333 0.333333 -3.85
586 1 0.208333 0.0416667 0.375 -3.85
587 1 0.333333 0 0.333333 -3.85
588 1 0.333333 0.0833333 0.416667 -3.85
589 1 0.375 0.0416667 0.375 -3.85
590 1 0.416667 0 0.416667 -3.85
591 1 0.416667 0.0833333 0.333333 -3.85
592 1 0.5 0 0.333333 -3.85
593 1 0.5 0.0833333 0.416667 -3.85
594 1 0.583333 0 0.416667 -3.85
595 1 0.583333 0.0833333 0.333333 -3.85
596 1 0.541667 0.0416667 0.375 -3.85
597 1 0.666667 0 0.333333 -3.85
598 1 0.666667 0.0833333 0.416667 -3.85
599 1 0.75 0 0.416667 -3.85
600 1 0.75 0.0833333 0.333333 -3.85
601 1 0.708333 0.0416667 0.375 -3.85
602 1 0.833333 0 0.333333 -3.85
603 1 0.833333 0.0833333 0.416667 -3.85
604 1 0.875 0.0416667 0.375 -3.85
605 1 0.916667 0 0.416667 -3.85
606 1 0.916667 0.0833333 0.333333 -3.85
607 1 0 0.166667 0.333333 -3.85
608 1 0.0833333 0.166667 0.416667 -3.85
609 1 0.125 0.125 0.375 -3.85
610 1 0.166667 0.166667 0.333333 -3.85
611 1 0.291667 0.125 0.375 -3.85
612 1 0.25 0.166667 0.416667 -3.85
613 1 0.333333 0.166667 0.333333 -3.85
614 1 0.458333 0.125 0.375 -3.85
615 1 0.416667 0.166667 0.416667 -3.85
616 1 0.5 0.166667 0.333333 -3.85
617 1 0.583333 0.166667 0.416667 -3.85
618 1 0.625 0.125 0.375 -3.85
619 1 0.666667 0.166667 0.333333 -3.85
620 1 0.791667 0.125 0.375 -3.85
621 1 0.75 0.166667 0.416667 -3.85
622 1 0.833333 0.166667 0.333333 -3.85
623 1 0.958333 0.125 0.375 -3.85
624 1 0.916667 0.166667 0.416667 -3.85
625 1 0 0.25 0.416667 -3.85
626 1 0.0833333 0.25 0.333333 -3.85
627 1 0.0416667 0.208333 0.375 -3.85
628 1 0.125 0.291667 0.375 -3.85
629 1 0.166667 0.25 0.416667 -3.85
630 1 0.25 0.25 0.333333 -3.85
631 1 0.208333 0.208333 0.375 -3.85
632 1 0.291667 0.291667 0.375 -3.85
633 1 0.333333 0.25 0.416667 -3.85
634 1 0.375 0.208333 0.375 -3.85
635 1 0.416667 0.25 0.333333 -3.85
636 1 0.458333 0.291667 0.375 -3.85
637 1 0.5 0.25 0.416667 -3.85
638 1 0.583333 0.25 0.333333 -3.85
639 1 0.541667 0.208333 0.375 -3.85
640 1 0.625 0.291667 0.375 -3.85
641 1 0.666667 0.25 0.416667 -3.85
642 1 0.75 0.25 0.333333 -3.85
643 1 0.708333 0.208333 0.375 -3.85
644 1 0.791667 0.291667 0.375 -3.85
645 1 0.833333 0.25 0.416667 -3.85
646 1 0.875 0.208333 0.375 -3.85
647 1 0.916667 0.25 0.333333 -3.85
648 1 0.958333 0.291667 0.375 -3.85
649 1 0 0.333333 0.333333 -3.85
650 1 0.0833333 0.333333 0.416667 -3.85
651 1 0.0416667 0.375 0.375 -3.85
652 1 0.166667 0.333333 0.333333 -3.85
653 1 0.25 0.333333 0.416667 -3.85
654 1 0.208333 0.375 0.375 -3.85
655 1 0.333333 0.333333 0.333333 -3.85
656 1 0.375 0.375 0.375 -3.85
657 1 0.416667 0.333333 0.416667 -3.85
658 1 0.5 0.333333 0.333333 -3.85
659 1 0.583333 0.333333 0.416667 -3.85
660 1 0.541667 0.375 0.375 -3.85
661 1 0.666667 0.333333 0.333333 -3.85
662 1 0.75 0.333333 0.416667 -3.85
663 1 0.708333 0.375 0.375 -3.85
664 1 0.833333 0.333333 0.333333 -3.85
665 1 0.875 0.375 0.375 -3.85
666 1 0.916667 0.333333 0.416667 -3.85
667 1 0 0.416667 0.416667 -3.85
668 1 0.0833333 0.416667 0.333333 -3.85
669 1 0.125 0.458333 0.375 -3.85
670 1 0.166667 0.416667 0.416667 -3.85
671 1 0.25 0.416667 0.333333 -3.85
672 1 0.291667 0.458333 0.375 -3.85
673 1 0.333333 0.416667 0.416667 -3.85
674 1 0.416667 0.416667 0.333333 -3.85
675 1 0.458333 0.458333 0.375 -3.85
676 1 0.5 0.416667 0.416667 -3.85
677 1 0.583333 0.416667 0.333333 -3.85
678 1 0.625 0.458333 0.375 -3.85
679 1 0.666667 0.416667 0.416667 -3.85
680 1 0.75 0.416667 0.333333 -3.85
681 1 0.791667 0.458333 0.375 -3.85
682 1 0.833333 0.416667 0.416667 -3.85
683 1 0.916667 0.416667 0.333333 -3.85
684 1 0.958333 0.458333 0.375 -3.85
685 1 0 0.5 0.333333 -3.85
686 1 0 0.583333 0.416667 -3.85
687 1 0.0833333 0.5 0.416667 -3.85
688 1 0.0833333 0.583333 0.333333 -3.85
689 1 0.0416667 0.541667 0.375 -3.85
690 1 0.166667 0.5 0.333333 -3.85
691 1 0.166667 0.583333 0.416667 -3.85
692 1 0.25 0.5 0.416667 -3.85
693 1 0.25 0.583333 0.333333 -3.85
694 1 0.208333 0.541667 0.375 -3.85
695 1 0.333333 0.5 0.333333 -3.85
696 1 0.333333 0.583333 0.416667 -3.85
697 1 0.375 0.541667 0.375 -3.85
698 1 0.416667 0.5 0.416667 -3.85
699 1 0.416667 0.583333 0.333333 -3.85
700 1 0.5 0.5 0.333333 -3.85
701 1 0.5 0.583333 0.416667 -3.85
702 1 0.583333 0.5 0.416667 -3.85
703 1 0.583333 0.583333 0.333333 -3.85
704 1 0.541667 0.541667 0.375 -3.85
705 1 0.666667 0.5 0.333333 -3.85
706 1 0.666667 0.583333 0.416667 -3.85
707 1 0.75 0.5 0.416667 -3.85
708 1 0.75 0.583333 0.333333 -3.85
709 1 0.708333 0.541667 0.375 -3.85
710 1 0.833333 0.5 0.333333 -3.85
711 1 0.833333 0.583333 0.416667 -3.85
712 1 0.875 0.541667 0.375 -3.85
713 1 0.916667 0.5 0.416667 -3.85
714 1 0.916667 0.583333 0.333333 -3.85
715 1 0 0.666667 0.333333 -3.85
716 1 0.0833333 0.666667 0.416667 -3.85
717 1 0.125 0.625 0.375 -3.85
718 1 0.166667 0.666667 0.333333 -3.85
719 1 0.291667 0.625 0.375 -3.85
720 1 0.25 0.666667 0.416667 -3.85
721 1 0.333333 0.666667 0.333333 -3.85
722 1 0.458333 0.625 0.375 -3.85
723 1 0.416667 0.666667 0.416667 -3.85
724 1 0.5 0.666667 0.333333 -3.85
725 1 0.583333 0.666667 0.416667 -3.85
726 1 0.625 0.625 0.375 -3.85
727 1 0.666667 0.666667 0.333333 -3.85
728 1 0.791667 0.625 0.375 -3.85
729 1 0.75 0.666667 0.416667 -3.85
730 1 0.833333 0.666667 0.333333 -3.85
731 1 0.958333 0.625 0.375 -3.85
732 1 0.916667 0.666667 0.416667 -3.85
733 1 0 0.75 0.416667 -3.85
734 1 0.0833333 0.75 0.333333 -3.85
735 1 0.0416667 0.708333 0.375 -3.85
736 1 0.125 0.791667 0.375 -3.85
737 1 0.166667 0.75 0.416667 -3.85
738 1 0.25 0.75 0.333333 -3.85
739 1 0.208333 0.708333 0.375 -3.85
740 1 0.291667 0.791667 0.375 -3.85
741 1 0.333333 0.75 0.416667 -3.85
742 1 0.375 0.708333 0.375 -3.85
743 1 0.416667 0.75 0.333333 -3.85
744 1 0.458333 0.791667 0.375 -3.85
745 1 0.5 0.75 0.416667 -3.85
746 1 0.583333 0.75 0.333333 -3.85
747 1 0.541667 0.708333 0.375 -3.85
748 1 0.625 0.791667 0.375 -3.85
749 1 0.666667 0.75 0.416667 -3.85
750 1 0.75 0.75 0.333333 -3.85
751 1 0.708333 0.708333 0.375 -3.85
752 1 0.791667 0.791667 0.375 -3.85
753 1 0.833333 0.75 0.416667 -3.85
754 1 0.875 0.708333 0.375 -3.85
755 1 0.916667 0.75 0.333333 -3.85
756 1 0.958333 0.791667 0.375 -3.85
757 1 0 0.833333 0.333333 -3.85
758 1 0.0833333 0.833333 0.416667 -3.85
759 1 0.0416667 0.875 0.375 -3.85
760 1 0.166667 0.833333 0.333333 -3.85
761 1 0.25 0.833333 0.416667 -3.85
762 1 0.208333 0.875 0.375 -3.85
763 1 0.333333 0.833333 0.333333 -3.85
764 1 0.375 0.875 0.375 -3.85
765 1 0.416667 0.833333 0.416667 -3.85
766 1 0.5 0.833333 0.333333 -3.85
767 1 0.583333 0.833333 0.416667 -3.85
768 1 0.541667 0.875 0.375 -3.85
769 1 0.666667 0.833333 0.333333 -3.85
770 1 0.75 0.833333 0.416667 -3.85
771 1 0.708333 0.875 0.375 -3.85
772 1 0.833333 0.833333 0.333333 -3.85
773 1 0.875 0.875 0.375 -3.85
774 1 0.916667 0.833333 0.416667 -3.85
775 1 0 0.916667 0.416667 -3.85
776 1 0.0833333 0.916667 0.333333 -3.85
777 1 0.125 0.958333 0.375 -3.85
778 1 0.166667 0.916667 0.416667 -3.85
779 1 0.25 0.916667 0.333333 -3.85
780 1 0.291667 0.958333 0.375 -3.85
781 1 0.333333 0.916667 0.416667 -3.85
782 1 0.416667 0.916667 0.333333 -3.85
783 1 0.458333 0.958333 0.375 -3.85
784 1 0.5 0.916667 0.416667 -3.85
785 1 0.583333 0.916667 0.333333 -3.85
786 1 0.625 0.958333 0.375 -3.85
787 1 0.666667 0.916667 0.416667 -3.85
788 1 0.75 0.916667 0.333333 -3.85
789 1 0.791667 0.958333 0.375 -3.85
790 1 0.833333 0.916667 0.416667 -3.85
791 1 0.916667 0.916667 0.333333 -3.85
792 1 0.958333 0.958333 0.375 -3.85
793 1 0 0 0.5 -3.85
794 1 0.0833333 0.0833333 0.5 -3.85
795 1 0.0416667 0.0416667 0.541667 -3.85
796 1 0.125 0.0416667 0.458333 -3.85
797 1 0.166667 0 0.5 -3.85
798 1 0.291667 0.0416667 0.458333 -3.85
799 1 0.25 0.0833333 0.5 -3.85
800 1 0.208333 0.0416667 0.541667 -3.85
801 1 0.333333 0 0.5 -3.85
802 1 0.375 0.0416667 0.541667 -3.85
803 1 0.458333 0.0416667 0.458333 -3.85
804 1 0.416667 0.0833333 0.5 -3.85
805 1 0.5 0 0.5 -3.85
806 1 0.583333 0.0833333 0.5 -3.85
807 1 0.541667 0.0416667 0.541667 -3.85
808 1 0.625 0.0416667 0.458333 -3.85
809 1 0.666667 0 0.5 -3.85
810 1 0.791667 0.0416667 0.458333 -3.85
811 1 0.75 0.0833333 0.5 -3.85
812 1 0.708333 0.0416667 0.541667 -3.85
813 1 0.833333 0 0.5 -3.85
814 1 0.875 0.0416667 0.541667 -3.85
815 1 0.958333 0.0416667 0.458333 -3.85
816 1 0.916667 0.0833333 0.5 -3.85
817 1 0.0416667 0.125 0.458333 -3.85
818 1 0 0.166667 0.5 -3.85
819 1 0.125 0.125 0.541667 -3.85
820 1 0.166667 0.166667 0.5 -3.85
821 1 0.208333 0.125 0.458333 -3.85
822 1 0.291667 0.125 0.541667 -3.85
823 1 0.375 0.125 0.458333 -3.85
824 1 0.333333 0.166667 0.5 -3.85
825 1 0.458333 0.125 0.541667 -3.85
826 1 0.541667 0.125 0.458333 -3.85
827 1 0.5 0.166667 0.5 -3.85
828 1 0.625 0.125 0.541667 -3.85
829 1 0.666667 0.166667 0.5 -3.85
830 1 0.708333 0.125 0.458333 -3.85
831 1 0.791667 0.125 0.541667 -3.85
832 1 0.875 0.125 0.458333 -3.85
833 1 0.833333 0.166667 0.5 -3.85
834 1 0.958333 0.125 0.541667 -3.85
835 1 0.0416667 0.291667 0.458333 -3.85
836 1 0.0833333 0.25 0.5 -3.85
837 1 0.0416667 0.208333 0.541667 -3.85
838 1 0.125 0.208333 0.458333 -3.85
839 1 0.125 0.291667 0.541667 -3.85
840 1 0.208333 0.291667 0.458333 -3.85
841 1 0.291667 0.208333 0.458333 -3.85
842 1 0.25 0.25 0.5 -3.85
843 1 0.208333 0.208333 0.541667 -3.85
844 1 0.291667 0.291667 0.541667 -3.85
845 1 0.375 0.291667 0.458333 -3.85
846 1 0.375 0.208333 0.541667 -3.85
847 1 0.458333 0.208333 0.458333 -3.85
848 1 0.416667 0.25 0.5 -3.85
849 1 0.458333 0.291667 0.541667 -3.85
850 1 0.541667 0.291667 0.458333 -3.85
851 1 0.583333 0.25 0.5 -3.85