LAMMPS (2 Aug 2023 - Update 3)
OMP_NUM_THREADS environment is not set. Defaulting to 1 thread. (src/comm.cpp:98)
  using 1 OpenMP thread(s) per MPI task
OMP_NUM_THREADS environment is not set. Defaulting to 1 thread. (src/comm.cpp:98)
  using 1 OpenMP thread(s) per MPI task
Lattice spacing in x,y,z = 5.658 5.658 5.658
Created orthogonal box = (-16.974 -16.974 -16.974) to (16.974 16.974 16.974)
  1 by 1 by 3 MPI processor grid
Lattice spacing in x,y,z = 5.658 5.658 5.658
Created 1728 atoms
  using lattice units in orthogonal box = (-16.974 -16.974 -16.974) to (16.974 16.974 16.974)
  create_atoms CPU = 0.000 seconds
Neighbor list info ...
  update: every = 1 steps, delay = 0 steps, check = yes
  max neighbors/atom: 2000, page size: 100000
  master list distance cutoff = 6.5
  ghost atom cutoff = 6.5
  binsize = 3.25, bins = 11 11 11
  2 neighbor lists, perpetual/occasional/extra = 2 0 0
  (1) pair meam, perpetual
      attributes: full, newton on
      pair build: full/bin/atomonly
      stencil: full/bin/3d
      bin: standard
  (2) pair meam, perpetual, half/full from (1)
      attributes: half, newton on
      pair build: halffull/newton
      stencil: none
      bin: none
Setting up cg style minimization ...
  Unit style    : metal
  Current step  : 0
Per MPI rank memory allocation (min/avg/max) = 10.6 | 10.6 | 10.6 Mbytes
   Step         PotEng           Lx             Ly             Lz           Press           Pxx            Pyy            Pzz          c_eatoms   
         0  -6652.8         33.948         33.948         33.948         13.278514      13.278514      13.278514      13.278514     -6652.8       
         1  -6652.8         33.948         33.948         33.948         13.278514      13.278514      13.278514      13.278514     -6652.8       
Loop time of 0.00770407 on 3 procs for 1 steps with 1728 atoms

94.6% CPU use with 3 MPI tasks x 1 OpenMP threads

Minimization stats:
  Stopping criterion = energy tolerance
  Energy initial, next-to-last, final = 
     -6652.79999723897  -6652.79999723897  -6652.79999723897
  Force two-norm initial, final = 3.5346199e-13 3.7526024e-13
  Force max component initial, final = 1.9984014e-14 1.6431301e-14
  Final line search alpha, max atom move = 1 1.6431301e-14
  Iterations, force evaluations = 1 2

MPI task timing breakdown:
Section |  min time  |  avg time  |  max time  |%varavg| %total
---------------------------------------------------------------
Pair    | 0.0056995  | 0.0057713  | 0.0058515  |   0.1 | 74.91
Neigh   | 0          | 0          | 0          |   0.0 |  0.00
Comm    | 0.00013952 | 0.00021506 | 0.00028099 |   0.0 |  2.79
Output  | 0          | 0          | 0          |   0.0 |  0.00
Modify  | 0          | 0          | 0          |   0.0 |  0.00
Other   |            | 0.001718   |            |       | 22.30

Nlocal:            576 ave         576 max         576 min
Histogram: 3 0 0 0 0 0 0 0 0 0
Nghost:           1749 ave        1749 max        1749 min
Histogram: 3 0 0 0 0 0 0 0 0 0
Neighs:          13248 ave       13248 max       13248 min
Histogram: 3 0 0 0 0 0 0 0 0 0
FullNghs:        26496 ave       26496 max       26496 min
Histogram: 3 0 0 0 0 0 0 0 0 0

Total # of neighbors = 79488
Ave neighs/atom = 46
Neighbor list builds = 0
Dangerous builds = 0
0 atoms in group del
Deleted 0 atoms, new total = 1728
System init for write_data ...
Setting up cg style minimization ...
  Unit style    : metal
  Current step  : 0
Per MPI rank memory allocation (min/avg/max) = 10.73 | 10.73 | 10.73 Mbytes
   Step         PotEng           Lx             Ly             Lz           Press           Pxx            Pyy            Pzz          c_eatoms   
         0  -6652.8         33.948         33.948         33.948         13.278514      13.278514      13.278514      13.278514     -6652.8       
         1  -6652.8         33.948         33.948         33.948         13.278514      13.278514      13.278514      13.278514     -6652.8       
Loop time of 0.00738624 on 3 procs for 1 steps with 1728 atoms

95.5% CPU use with 3 MPI tasks x 1 OpenMP threads

Minimization stats:
  Stopping criterion = energy tolerance
  Energy initial, next-to-last, final = 
     -6652.79999723897  -6652.79999723897  -6652.79999723897
  Force two-norm initial, final = 3.7526024e-13 3.6951138e-13
  Force max component initial, final = 1.6431301e-14 1.687539e-14
  Final line search alpha, max atom move = 1 1.687539e-14
  Iterations, force evaluations = 1 2

MPI task timing breakdown:
Section |  min time  |  avg time  |  max time  |%varavg| %total
---------------------------------------------------------------
Pair    | 0.0054653  | 0.0055541  | 0.0056404  |   0.1 | 75.19
Neigh   | 0          | 0          | 0          |   0.0 |  0.00
Comm    | 0.00011796 | 0.00020127 | 0.00028709 |   0.0 |  2.72
Output  | 0          | 0          | 0          |   0.0 |  0.00
Modify  | 0          | 0          | 0          |   0.0 |  0.00
Other   |            | 0.001631   |            |       | 22.08

Nlocal:            576 ave         576 max         576 min
Histogram: 3 0 0 0 0 0 0 0 0 0
Nghost:           1749 ave        1749 max        1749 min
Histogram: 3 0 0 0 0 0 0 0 0 0
Neighs:          13248 ave       13248 max       13248 min
Histogram: 3 0 0 0 0 0 0 0 0 0
FullNghs:        26496 ave       26496 max       26496 min
Histogram: 3 0 0 0 0 0 0 0 0 0

Total # of neighbors = 79488
Ave neighs/atom = 46
Neighbor list builds = 0
Dangerous builds = 0
All done
Total number of atoms = 1728
Initial energy of atoms = -6652.79999723887
Final energy of atoms = -6652.79999723887
Vacancy formation energy = -3.84999999840238
Total wall time: 0:00:00
