LAMMPS (2 Aug 2023 - Update 3)
OMP_NUM_THREADS environment is not set. Defaulting to 1 thread. (src/comm.cpp:98)
  using 1 OpenMP thread(s) per MPI task
OMP_NUM_THREADS environment is not set. Defaulting to 1 thread. (src/comm.cpp:98)
  using 1 OpenMP thread(s) per MPI task
Lattice spacing in x,y,z = 5.653 5.653 5.653
Created orthogonal box = (-16.959 -16.959 -16.959) to (16.959 16.959 16.959)
  3 by 1 by 1 MPI processor grid
Lattice spacing in x,y,z = 5.653 5.653 5.653
Created 1728 atoms
  using lattice units in orthogonal box = (-16.959 -16.959 -16.959) to (16.959 16.959 16.959)
  create_atoms CPU = 0.000 seconds
Reading sw potential file /scratch/phys/t30429_nume-dft-ml/04-Ruoyan/00-MLP/04-short_range/ilearn/ilearn/potentials/params/SW/Ge.sw with DATE: 2025-10-10
Neighbor list info ...
  update: every = 1 steps, delay = 0 steps, check = yes
  max neighbors/atom: 2000, page size: 100000
  master list distance cutoff = 5.9258
  ghost atom cutoff = 5.9258
  binsize = 2.9629, bins = 12 12 12
  1 neighbor lists, perpetual/occasional/extra = 1 0 0
  (1) pair sw, perpetual
      attributes: full, newton on
      pair build: full/bin/atomonly
      stencil: full/bin/3d
      bin: standard
Setting up cg style minimization ...
  Unit style    : metal
  Current step  : 0
Per MPI rank memory allocation (min/avg/max) = 4.369 | 4.369 | 4.37 Mbytes
   Step         PotEng           Lx             Ly             Lz           Press           Pxx            Pyy            Pzz          c_eatoms   
         0  -5460.4791      33.918         33.918         33.918         216.01154      216.01154      216.01154      216.01154     -5460.4791    
         1  -5460.4791      33.918         33.918         33.918         216.01154      216.01154      216.01154      216.01154     -5460.4791    
Loop time of 0.00301611 on 3 procs for 1 steps with 1728 atoms

75.7% CPU use with 3 MPI tasks x 1 OpenMP threads

Minimization stats:
  Stopping criterion = energy tolerance
  Energy initial, next-to-last, final = 
     -5460.47913303007  -5460.47913303007  -5460.47913303007
  Force two-norm initial, final = 2.7128872e-13 2.6991453e-13
  Force max component initial, final = 1.2378553e-14 1.2328463e-14
  Final line search alpha, max atom move = 1 1.2328463e-14
  Iterations, force evaluations = 1 2

MPI task timing breakdown:
Section |  min time  |  avg time  |  max time  |%varavg| %total
---------------------------------------------------------------
Pair    | 0.0010779  | 0.0011007  | 0.0011463  |   0.1 | 36.50
Neigh   | 0          | 0          | 0          |   0.0 |  0.00
Comm    | 0.00017551 | 0.00021282 | 0.00023935 |   0.0 |  7.06
Output  | 0          | 0          | 0          |   0.0 |  0.00
Modify  | 0          | 0          | 0          |   0.0 |  0.00
Other   |            | 0.001703   |            |       | 56.45

Nlocal:            576 ave         576 max         576 min
Histogram: 3 0 0 0 0 0 0 0 0 0
Nghost:           1749 ave        1749 max        1749 min
Histogram: 3 0 0 0 0 0 0 0 0 0
Neighs:              0 ave           0 max           0 min
Histogram: 3 0 0 0 0 0 0 0 0 0
FullNghs:        19584 ave       19584 max       19584 min
Histogram: 3 0 0 0 0 0 0 0 0 0

Total # of neighbors = 58752
Ave neighs/atom = 34
Neighbor list builds = 0
Dangerous builds = 0
0 atoms in group del
Deleted 0 atoms, new total = 1728
System init for write_data ...
Setting up cg style minimization ...
  Unit style    : metal
  Current step  : 0
Per MPI rank memory allocation (min/avg/max) = 4.494 | 4.494 | 4.495 Mbytes
   Step         PotEng           Lx             Ly             Lz           Press           Pxx            Pyy            Pzz          c_eatoms   
         0  -5460.4791      33.918         33.918         33.918         216.01154      216.01154      216.01154      216.01154     -5460.4791    
         1  -5460.4791      33.918         33.918         33.918         216.01154      216.01154      216.01154      216.01154     -5460.4791    
Loop time of 0.00292107 on 3 procs for 1 steps with 1728 atoms

84.7% CPU use with 3 MPI tasks x 1 OpenMP threads

Minimization stats:
  Stopping criterion = energy tolerance
  Energy initial, next-to-last, final = 
     -5460.47913303007  -5460.47913303007  -5460.47913303007
  Force two-norm initial, final = 2.6991453e-13 2.7115867e-13
  Force max component initial, final = 1.2328463e-14 1.236229e-14
  Final line search alpha, max atom move = 1 1.236229e-14
  Iterations, force evaluations = 1 2

MPI task timing breakdown:
Section |  min time  |  avg time  |  max time  |%varavg| %total
---------------------------------------------------------------
Pair    | 0.001074   | 0.0011009  | 0.0011544  |   0.1 | 37.69
Neigh   | 0          | 0          | 0          |   0.0 |  0.00
Comm    | 0.00013816 | 0.00017916 | 0.00021295 |   0.0 |  6.13
Output  | 0          | 0          | 0          |   0.0 |  0.00
Modify  | 0          | 0          | 0          |   0.0 |  0.00
Other   |            | 0.001641   |            |       | 56.18

Nlocal:            576 ave         576 max         576 min
Histogram: 3 0 0 0 0 0 0 0 0 0
Nghost:           1749 ave        1749 max        1749 min
Histogram: 3 0 0 0 0 0 0 0 0 0
Neighs:              0 ave           0 max           0 min
Histogram: 3 0 0 0 0 0 0 0 0 0
FullNghs:        19584 ave       19584 max       19584 min
Histogram: 3 0 0 0 0 0 0 0 0 0

Total # of neighbors = 58752
Ave neighs/atom = 34
Neighbor list builds = 0
Dangerous builds = 0
All done
Total number of atoms = 1728
Initial energy of atoms = -5460.47913303019
Final energy of atoms = -5460.47913303019
Vacancy formation energy = -3.15999949828165
Total wall time: 0:00:00
