ITEM: TIMESTEP
10000
ITEM: NUMBER OF ATOMS
64
ITEM: BOX BOUNDS pp pp pp
0.0000000000000000e+00 1.1100000000000000e+01
0.0000000000000000e+00 1.1100000000000000e+01
0.0000000000000000e+00 1.1100000000000000e+01
ITEM: ATOMS id type x y z
2 1 1.44993 1.55887 1.24234
13 1 2.92244 2.71672 5.30253
5 1 0.170126 0.223966 5.69987
7 1 1.91561 1.29021 7.07505
11 1 0.163494 2.85877 2.71489
12 1 1.30549 4.1167 4.41083
19 1 2.86319 5.54509 3.22313
14 1 0.292333 2.87453 8.12567
16 1 1.2411 4.41685 9.77989
9 1 2.80744 2.89639 10.8309
17 1 0.0249976 6.01286 0.172853
18 1 1.5081 6.91861 1.77207
25 1 2.82802 8.14544 0.127984
23 1 1.30465 7.04601 6.97041
22 1 2.76978 5.69686 8.36681
1 1 0.00812004 10.8409 0.023785
3 1 2.50244 10.9342 2.53865
27 1 0.151078 8.33139 2.94972
28 1 1.47981 9.80711 4.37618
29 1 2.9989 8.52738 5.49738
6 1 3.04466 10.9358 8.76517
32 1 1.28008 9.40414 9.5729
33 1 5.34162 0.150919 0.396571
34 1 7.10899 1.60301 1.02556
4 1 4.0783 1.26555 3.79259
39 1 6.83156 1.39801 6.85404
8 1 4.29106 1.44525 9.73502
10 1 3.86376 4.20761 1.31818
43 1 5.47544 2.91826 2.28378
44 1 6.57685 3.71917 4.57658
15 1 3.9735 4.33421 6.78873
46 1 5.37684 2.83996 8.18667
48 1 7.02461 3.67395 9.70358
49 1 5.6776 5.4245 10.9568
50 1 7.04265 6.64412 1.3721
59 1 5.68576 8.25795 2.52537
20 1 4.50481 7.16387 4.11049
53 1 5.73414 5.74573 5.65854
55 1 6.97315 7.07653 7.05715
24 1 4.33021 6.866 9.66176
26 1 4.00294 9.72364 1.39958
37 1 5.19172 10.9001 5.45394
60 1 6.8553 9.72636 3.9888
31 1 4.08265 9.64505 7.20049
62 1 5.57983 8.50515 8.58382
64 1 6.89376 9.94729 10.3
35 1 8.22653 0.130153 2.65847
36 1 9.69959 1.18806 4.27407
45 1 8.61873 2.64331 5.73936
40 1 10.0081 1.16425 9.43422
41 1 8.87036 2.55742 10.8497
42 1 9.71368 4.48223 1.49851
51 1 7.78034 5.13822 2.90807
47 1 9.77355 4.28174 6.68769
54 1 8.24066 5.3662 8.17569
57 1 8.4516 8.20177 0.219747
52 1 9.49986 6.90252 3.93052
21 1 11.0139 5.82227 5.44315
56 1 9.39464 6.83154 9.63457
58 1 9.82891 9.66663 1.70303
61 1 8.2152 8.38975 5.33239
63 1 9.5835 10.013 6.80624
30 1 10.6388 8.34943 8.10173
38 1 7.9131 10.8905 8.23368
ITEM: TIMESTEP
10500
ITEM: NUMBER OF ATOMS
64
ITEM: BOX BOUNDS pp pp pp
0.0000000000000000e+00 1.1100000000000000e+01
0.0000000000000000e+00 1.1100000000000000e+01
0.0000000000000000e+00 1.1100000000000000e+01
ITEM: ATOMS id type x y z
2 1 1.58685 1.24888 1.41049
13 1 2.84132 3.01823 5.44475
5 1 0.140038 -0.0411142 5.50654
3 1 2.88968 -0.185328 2.87608
7 1 1.66435 1.44803 6.97085
6 1 2.80773 -0.287219 8.39094
9 1 2.78925 2.79178 11.0478
12 1 1.11216 4.26107 4.48851
16 1 1.18645 4.36943 9.91837
18 1 1.36197 7.21984 1.2792
19 1 2.39911 5.65897 2.8363
23 1 1.27934 6.99597 6.91097
29 1 2.66519 8.49947 5.78281
30 1 -0.0309544 8.38633 8.53863
22 1 2.96199 5.48325 8.51717
25 1 3.00176 8.48944 -0.0314343
28 1 1.54739 9.5419 4.10535
32 1 1.431 9.69218 9.92761
34 1 6.80511 1.5581 1.18943
4 1 4.34405 1.4884 3.75515
39 1 7.0108 1.30695 7.06999
37 1 5.19638 0.240077 5.5988
8 1 3.95219 1.62559 9.41644
10 1 3.88244 4.15929 1.43084
43 1 5.75212 2.89536 2.55313
44 1 6.97355 3.92753 4.2467
53 1 5.69175 5.54009 5.39917
15 1 4.24357 4.29606 6.77612
46 1 5.59916 2.92844 8.16779
48 1 7.05043 4.03429 9.57613
49 1 5.6736 5.23256 11.0546
50 1 6.95796 6.78358 1.38251
20 1 3.96161 6.75008 4.12122
59 1 5.51912 8.16882 2.67966
55 1 6.92181 7.00013 6.94982
24 1 4.27576 6.83002 10.0779
26 1 4.34149 9.9511 1.26141
60 1 6.47758 9.65258 4.2595
31 1 4.34637 9.66423 7.19572
64 1 7.07049 9.66537 9.73812
33 1 5.51952 11.3351 10.8245
62 1 5.41354 8.14862 8.61009
41 1 8.69626 2.70966 0.0450631
36 1 9.92025 1.31568 4.08729
35 1 7.93856 -0.081016 2.86562
11 1 11.4829 2.93206 2.72595
45 1 8.5298 2.59937 5.47775
40 1 9.80401 1.05177 9.68984
14 1 11.2218 2.78184 8.26829
42 1 9.92307 4.27061 1.25758
51 1 8.30916 5.18527 2.70451
47 1 10.0101 4.00029 6.71111
54 1 8.1575 5.32981 7.92609
27 1 11.0904 8.11832 3.20821
52 1 9.03369 7.18746 4.1441
21 1 10.7172 5.97287 5.49359
56 1 9.41331 6.8229 9.42888
57 1 8.36389 8.13041 11.1857
17 1 11.0648 6.00724 10.9196
58 1 9.59374 9.58574 1.7258
1 1 11.0836 10.8031 0.400801
63 1 9.87343 9.79778 6.94185
38 1 8.46611 11.0887 8.1449
61 1 8.09143 8.71678 5.69187
ITEM: TIMESTEP
11000
ITEM: NUMBER OF ATOMS
64
ITEM: BOX BOUNDS pp pp pp
0.0000000000000000e+00 1.1100000000000000e+01
0.0000000000000000e+00 1.1100000000000000e+01
0.0000000000000000e+00 1.1100000000000000e+01
ITEM: ATOMS id type x y z
2 1 1.49747 1.46384 1.32667
9 1 2.7445 2.78519 -0.03473
13 1 2.54876 3.01631 5.71552
3 1 2.91069 -0.0418112 2.90012
7 1 1.2882 1.2136 6.87979
6 1 2.71592 0.0165363 8.357
12 1 1.29833 4.47217 4.43703
16 1 1.54785 4.1612 9.79044
18 1 1.01429 7.00441 1.43096
19 1 2.56024 5.5434 2.54942
27 1 -0.311641 8.43878 2.81457
21 1 0.0456455 5.97522 5.58237
23 1 1.50295 7.23168 7.0108
22 1 2.73041 5.5494 8.20958
25 1 3.01733 8.08055 0.236854
28 1 1.25241 9.54603 4.23814
5 1 -0.224927 10.8883 5.64589
29 1 3.10539 8.43548 5.46024
32 1 1.57743 9.67586 10.0219
1 1 0.0165828 11.306 11.0929
30 1 0.0775466 8.14208 8.85901
34 1 7.1446 1.37056 1.62471
4 1 4.10787 1.67291 4.0047
39 1 7.1056 1.3929 7.00981
8 1 4.31375 1.34341 9.81662
46 1 5.77599 2.66369 8.38642
10 1 4.21749 4.40858 1.21468
49 1 5.65824 5.69304 -0.23753
44 1 6.89091 4.33326 4.01915
43 1 5.64198 3.00813 2.63413
15 1 4.07155 4.01817 7.02752
53 1 5.41452 5.42323 5.59874
48 1 7.09543 4.15207 9.76456
50 1 6.8359 7.07903 1.44274
20 1 3.98869 6.70379 3.98581
55 1 6.92553 6.58943 6.87088
24 1 3.93381 6.72571 9.61274
26 1 4.33055 9.70293 1.4354
33 1 5.88403 11.0828 0.180871
60 1 6.86794 9.74618 4.19874
37 1 5.56727 11.4932 5.45507
59 1 5.48825 8.29487 3.01025
31 1 4.28927 10.014 6.954
62 1 5.54656 8.23087 7.92771
64 1 6.55687 9.5555 9.46638
11 1 11.2834 2.75491 2.84023
36 1 9.73596 1.16144 3.79894
38 1 8.40869 -0.0879328 8.42129
40 1 9.8909 1.6304 9.4467
41 1 8.36089 2.62816 10.9277
42 1 9.69535 3.58192 1.47227
17 1 10.9459 5.33906 0.0612964
45 1 8.35916 2.80105 5.31672
47 1 9.77947 4.11553 6.65439
54 1 8.42315 5.52211 8.38971
14 1 11.2786 2.8234 8.06846
51 1 8.50345 5.60127 2.46112
52 1 9.51519 7.07419 4.29256
61 1 8.16845 8.35513 5.89247
56 1 9.53981 6.89801 10.0646
58 1 9.67051 9.77406 1.17272
35 1 8.25988 10.8586 2.74045
63 1 9.81285 9.40066 7.18371
57 1 7.90039 8.46554 10.966
ITEM: TIMESTEP
11500
ITEM: NUMBER OF ATOMS
64
ITEM: BOX BOUNDS pp pp pp
0.0000000000000000e+00 1.1100000000000000e+01
0.0000000000000000e+00 1.1100000000000000e+01
0.0000000000000000e+00 1.1100000000000000e+01
ITEM: ATOMS id type x y z
2 1 1.05943 1.47574 1.1861
9 1 2.88037 2.72619 0.202756
3 1 2.80977 0.204941 2.83029
5 1 -0.0670289 0.0887455 5.4607
7 1 1.47455 1.22267 6.9525
13 1 2.60585 2.95149 5.30061
6 1 2.87468 0.316853 8.61697
12 1 1.26256 4.15066 3.84279
21 1 -0.266239 5.47966 5.59255
16 1 1.6815 4.16351 10.0063
14 1 0.376893 2.72714 8.65894
17 1 0.0228802 5.57907 11.1141
18 1 1.59216 7.08738 1.46967
19 1 2.88995 5.55658 2.86306
27 1 -0.0350979 8.49316 2.87689
23 1 1.22106 6.65001 6.92012
22 1 2.62115 5.57253 8.41173
25 1 2.96523 8.46925 0.152691
28 1 1.50837 9.80126 4.3879
29 1 2.58799 8.44276 6.06576
32 1 1.48165 9.68065 9.59693
34 1 7.35768 1.3927 1.51025
4 1 4.40108 1.39278 4.27352
43 1 5.74737 2.67754 2.77499
39 1 7.12123 1.22488 6.6527
8 1 4.50884 1.58052 9.70136
10 1 4.36576 4.18213 1.81074
44 1 6.81749 4.32693 4.03854
15 1 4.018 4.14345 6.59513
46 1 5.69473 2.76121 7.97761
48 1 6.81037 4.04463 9.77385
49 1 5.31783 5.40906 10.9815
50 1 6.86377 6.69919 1.16362
20 1 3.76422 7.11826 4.27529
53 1 5.45404 5.81261 5.44019
55 1 6.9698 6.89686 7.0228
62 1 5.63757 8.27031 8.36697
24 1 3.9565 7.02886 9.89075
26 1 4.22189 9.92962 1.3639
33 1 5.59256 11.3618 0.125586
59 1 5.63348 8.37687 2.73924
60 1 6.86752 9.60853 4.14493
31 1 4.22942 9.83029 7.24945
37 1 5.48975 10.9808 5.67737
64 1 7.01583 9.89722 9.81519
36 1 9.63772 1.65132 4.10938
35 1 8.42476 -0.0384114 2.95924
45 1 8.39207 3.23555 5.58743
40 1 9.82136 1.08919 9.66506
41 1 8.27118 2.56663 10.8275
42 1 9.47114 4.1679 1.03183
11 1 10.871 2.94198 2.38536
47 1 9.8127 4.01151 7.49692
51 1 8.14361 5.4613 2.54954
52 1 9.76736 6.70034 3.89954
61 1 8.26091 8.05014 5.29353
56 1 9.657 7.00743 9.76235
54 1 8.33144 5.57268 8.45122
58 1 9.60526 9.35051 1.35427
63 1 9.64821 9.40007 6.63083
38 1 8.31487 10.935 8.09681
30 1 11.1212 8.36704 8.26926
57 1 8.0996 8.2019 11.0176
1 1 11.0442 10.7406 11.0376
ITEM: TIMESTEP
12000
ITEM: NUMBER OF ATOMS
64
ITEM: BOX BOUNDS pp pp pp
0.0000000000000000e+00 1.1100000000000000e+01
0.0000000000000000e+00 1.1100000000000000e+01
0.0000000000000000e+00 1.1100000000000000e+01
ITEM: ATOMS id type x y z
2 1 1.39707 1.63863 1.33169
3 1 2.62734 0.36807 2.78983
7 1 1.22284 1.52053 6.85844
13 1 2.88601 2.82434 5.60786
6 1 2.84146 0.302639 8.19813
1 1 -0.207085 0.140257 11.3843
9 1 2.79379 2.8064 11.0165
17 1 0.0539596 5.4625 -0.222598
12 1 1.32297 3.94973 4.1035
19 1 2.63896 5.61115 2.88888
21 1 0.0988849 5.68106 5.423
16 1 1.48355 3.9096 9.31146
18 1 1.28123 6.84592 1.03011
23 1 1.48057 6.94822 7.35276
22 1 3.02181 5.66679 8.59218
29 1 2.29293 8.03313 5.4516
30 1 0.162581 8.42434 8.76567
25 1 2.78778 8.65265 0.111631
28 1 1.41333 9.76877 3.81371
5 1 0.198113 10.8228 5.60506
32 1 1.46458 10.4209 9.90989
34 1 7.15633 1.25409 1.27776
43 1 5.47863 2.45137 2.52913
4 1 4.32202 1.41368 4.25847
39 1 7.03713 1.18159 6.86869
8 1 4.64226 1.50466 9.69974
46 1 5.98312 2.79067 8.23056
10 1 4.00086 4.04544 1.45217
44 1 6.6719 4.07062 4.0069
15 1 4.30735 4.22985 7.32829
48 1 6.69305 4.4137 9.90907
50 1 6.79162 7.03539 1.44531
49 1 5.46102 5.50828 0.356017
20 1 4.03729 7.06888 4.2217
55 1 6.49447 7.04407 7.07184
53 1 5.37709 5.5258 5.58728
24 1 4.25488 7.26977 10.0349
26 1 4.17251 9.9385 1.5297
33 1 5.68875 10.5571 -0.0196687
60 1 7.17998 9.59669 4.15864
59 1 5.59549 8.38452 2.90299
31 1 3.88867 9.61401 6.64459
37 1 5.65283 10.9031 5.69787
64 1 7.40597 9.69776 9.72184
62 1 5.58412 8.55511 8.41042
36 1 9.79619 1.1336 4.19617
45 1 8.09296 2.61244 5.31694
35 1 8.552 -0.0112404 2.73204
40 1 9.73387 1.52402 9.84045
42 1 9.64097 4.32815 1.28941
41 1 8.22885 3.03807 -0.23839
11 1 10.8459 2.74207 2.85773
47 1 9.56149 4.11641 6.76599
14 1 10.8778 2.76897 8.29947
52 1 9.67282 7.04501 4.05747
51 1 8.15138 5.65991 2.94001
61 1 8.34612 7.95852 5.71106
54 1 8.04327 5.4793 7.9664
56 1 9.72298 6.65374 9.4577
57 1 8.6534 7.68892 11.2277
58 1 9.53409 9.50113 1.21913
27 1 11.167 8.35409 2.43728
63 1 9.83368 9.59901 7.07763
38 1 8.50537 11.1548 8.29795
ITEM: TIMESTEP
12500
ITEM: NUMBER OF ATOMS
64
ITEM: BOX BOUNDS pp pp pp
0.0000000000000000e+00 1.1100000000000000e+01
0.0000000000000000e+00 1.1100000000000000e+01
0.0000000000000000e+00 1.1100000000000000e+01
ITEM: ATOMS id type x y z
2 1 1.70296 1.62864 1.17659
3 1 2.55499 0.24475 2.88432
7 1 1.37224 1.73761 7.11246
6 1 3.02176 0.309467 8.43395
5 1 -0.0723394 0.0596452 5.83272
1 1 0.216915 0.205842 10.6347
12 1 1.37633 3.83697 3.8601
21 1 0.203089 5.44859 5.27177
19 1 2.77804 5.51501 2.94156
13 1 2.86802 2.74441 5.5746
16 1 1.21456 4.08413 9.58716
9 1 2.86983 3.20346 10.812
18 1 1.26944 6.70283 1.31686
25 1 2.60166 8.19529 0.0858338
23 1 1.32759 6.959 6.68862
30 1 0.200327 8.19311 8.43601
22 1 2.68806 5.64324 8.27311
28 1 1.13311 9.96782 4.11996
29 1 2.79222 8.69454 5.38508
32 1 1.57311 9.92682 9.63165
34 1 6.97793 1.51588 1.47336
43 1 5.40774 2.73005 2.70913
4 1 4.28471 1.30603 4.31845
39 1 7.03204 1.19282 6.77472
8 1 4.48077 1.19687 10.24
46 1 5.84659 2.55271 8.52035
10 1 4.18615 4.16881 1.30051
44 1 6.84243 3.99816 4.05649
15 1 4.23715 4.11666 7.23704
53 1 5.79016 5.45292 5.6608
48 1 7.24768 4.10525 9.64449
49 1 5.57329 5.61934 10.9771
50 1 6.77754 7.0764 1.19169
20 1 4.20112 6.97029 4.25897
55 1 6.63958 7.24263 6.99322
24 1 3.97937 6.93364 9.68095
26 1 3.86534 10.02 1.33926
33 1 5.84267 10.7553 0.38247
60 1 7.29188 9.42385 3.9803
59 1 5.32274 8.35255 2.76001
37 1 5.71623 10.7243 5.41031
31 1 4.15053 9.88517 7.05911
64 1 7.17173 9.70587 9.98085
62 1 5.40798 8.51399 8.41673
35 1 8.48214 -0.132954 2.71902
11 1 10.7842 2.70318 2.66263
36 1 9.61772 1.38466 4.38917
40 1 9.3892 1.39263 9.55739
42 1 9.28796 4.1031 1.62506
51 1 8.03059 5.62683 2.57378
17 1 10.9951 5.16669 0.206439
41 1 8.3253 2.71745 0.0642742
45 1 8.1513 2.93099 5.58144
47 1 9.34209 4.45247 6.61571
14 1 10.7043 3.05976 8.13212
52 1 9.4709 6.4235 4.11236
27 1 10.9491 8.18385 3.05027
54 1 8.38011 6.02749 8.38246
61 1 8.50001 7.9998 5.61262
56 1 9.94254 6.89949 9.97458
58 1 10.0898 9.70093 1.20894
57 1 8.52257 8.37825 0.0431461
63 1 9.91513 9.49223 7.00717
38 1 8.35471 10.7289 8.15616
ITEM: TIMESTEP
13000
ITEM: NUMBER OF ATOMS
64
ITEM: BOX BOUNDS pp pp pp
0.0000000000000000e+00 1.1100000000000000e+01
0.0000000000000000e+00 1.1100000000000000e+01
0.0000000000000000e+00 1.1100000000000000e+01
ITEM: ATOMS id type x y z
2 1 1.25563 1.59637 1.54158
9 1 2.76811 2.8484 -0.14595
1 1 -0.0857708 -0.181248 0.239171
7 1 1.25504 1.72459 6.88054
6 1 2.64517 0.186031 8.21823
12 1 1.11849 3.94977 4.03965
13 1 2.84431 2.61053 5.25334
19 1 2.73997 5.36088 2.72165
22 1 2.81599 5.73118 8.135
16 1 1.39955 4.21981 9.74863
18 1 1.56417 6.89572 1.47273
17 1 0.00201223 5.89095 -0.0812699
23 1 1.1981 6.78512 6.82494
29 1 3.02672 8.27402 5.64353
25 1 2.64658 8.4539 11.0779
28 1 1.49963 9.73952 4.40488
27 1 0.332835 8.3943 2.82736
3 1 2.72585 11.1564 2.87874
32 1 1.34503 9.78928 9.66939
34 1 7.20487 1.28196 1.25839
4 1 4.3354 1.03929 4.46147
43 1 5.6637 2.36586 2.8084
39 1 6.96613 1.40167 7.67548
37 1 5.8064 -0.0790732 6.03046
8 1 4.26238 1.44514 9.50713
33 1 5.55664 -0.0114471 11.0498
10 1 4.31572 4.08519 1.48841
49 1 5.31851 5.52809 0.193222
44 1 6.985 3.98198 4.08985
53 1 5.80288 5.69166 5.29376
15 1 4.29392 4.36852 6.55789
48 1 6.77244 4.23541 9.7263
46 1 5.46708 3.15126 8.27879
50 1 6.72281 7.12043 1.40039
20 1 4.10415 6.91589 4.16136
55 1 7.00591 7.18546 6.6574
24 1 4.19203 6.88193 9.87051
26 1 4.19273 9.88757 1.40952
60 1 6.84858 9.64009 4.13137
59 1 5.41324 8.29667 2.87926
31 1 4.21123 9.8874 7.36036
64 1 7.33163 9.74835 9.74887
62 1 5.76118 8.014 8.48035
11 1 10.5834 3.01648 2.57775
36 1 9.51715 1.48409 3.99534
5 1 11.0902 0.279477 5.24928
38 1 8.71422 -0.0540026 8.31518
45 1 7.98465 2.28146 5.6337
40 1 9.81798 1.34661 9.93094
42 1 9.2176 4.52095 1.02764
41 1 8.24928 2.64274 -0.113186
47 1 9.32108 3.89373 7.06535
54 1 7.96097 5.60914 8.26436
21 1 10.9794 5.25925 5.72593
14 1 10.9419 3.04316 8.47405
57 1 8.61105 8.26989 -0.0756223
52 1 10.0969 6.90515 4.09802
51 1 8.31781 5.71243 2.86095
61 1 8.63122 8.20386 5.2629
56 1 9.52603 6.68414 9.66589
58 1 9.93308 9.60359 1.66371
35 1 8.34733 10.7833 2.72358
63 1 9.87013 9.74755 6.5506
30 1 10.9566 8.27817 8.23487
ITEM: TIMESTEP
13500
ITEM: NUMBER OF ATOMS
64
ITEM: BOX BOUNDS pp pp pp
0.0000000000000000e+00 1.1100000000000000e+01
0.0000000000000000e+00 1.1100000000000000e+01
0.0000000000000000e+00 1.1100000000000000e+01
ITEM: ATOMS id type x y z
2 1 1.20125 1.46876 1.62005
11 1 -0.113855 3.03992 2.93524
7 1 1.09234 1.523 7.14547
14 1 -0.263138 3.24208 8.29071
13 1 2.66445 2.44687 5.46595
9 1 2.53946 2.5734 -0.029144
12 1 1.50545 4.12408 4.41936
16 1 1.214 4.30832 9.91365
18 1 1.50176 6.94499 1.14816
25 1 3.11141 8.27839 -0.114617
19 1 2.87465 5.52824 2.71782
29 1 2.76347 8.29688 5.62354
23 1 1.22564 6.93538 6.82243
21 1 -0.118238 5.78867 5.20428
22 1 2.66591 5.52005 8.17861
3 1 2.72007 11.0404 2.57373
28 1 1.58591 9.7664 4.1961
32 1 1.51899 9.60212 9.77432
6 1 2.81308 11.0923 8.17536
34 1 6.66211 1.16253 1.42054
4 1 4.27978 1.26625 4.11568
37 1 5.70823 0.145462 5.35486
39 1 6.90017 1.57056 7.07101
8 1 4.07718 1.33879 9.91568
46 1 5.52922 2.74954 8.55876
10 1 4.17659 4.13263 1.2766
44 1 6.98864 4.09832 4.30002
43 1 5.55362 2.88288 2.71989
15 1 4.07113 3.87529 6.87311
53 1 5.55031 5.38982 5.83802
48 1 7.12407 4.46828 9.75727
49 1 5.47294 5.76705 11.2203
50 1 7.00179 7.20962 1.51055
20 1 4.30345 6.79784 4.36866
59 1 5.63831 8.16518 2.94364
55 1 6.82771 7.01672 7.09678
24 1 4.2238 6.74463 9.58123
26 1 4.47911 9.598 1.59326
33 1 5.60136 10.8875 -0.154755
60 1 7.05518 9.62577 4.34458
31 1 4.25151 9.86502 6.71771
64 1 6.97104 9.48079 9.58639
62 1 5.51118 8.30989 8.28579
36 1 9.78375 1.22118 4.06572
35 1 8.30911 -0.180108 2.76304
40 1 9.73203 1.69146 9.71781
1 1 11.135 0.113837 11.1586
42 1 9.63964 3.8477 1.24924
17 1 10.9055 5.74356 -0.0477388
41 1 7.93946 2.68851 0.0162995
47 1 9.53286 4.29463 6.41256
45 1 8.33444 2.53586 5.3894
52 1 9.41793 7.09427 3.85701
51 1 8.03925 5.295 2.57279
61 1 8.63331 8.2448 5.77154
56 1 9.93013 7.02177 9.45397
54 1 8.55692 5.53953 8.13227
30 1 11.3358 8.61645 8.22726
58 1 9.85135 9.8676 1.49557
27 1 11.3394 8.26342 2.7111
63 1 9.54883 9.86979 7.36812
5 1 11.1475 10.9718 5.75295
38 1 8.2196 11.339 8.62262
57 1 8.50721 8.15135 11.0533
ITEM: TIMESTEP
14000
ITEM: NUMBER OF ATOMS
64
ITEM: BOX BOUNDS pp pp pp
0.0000000000000000e+00 1.1100000000000000e+01
0.0000000000000000e+00 1.1100000000000000e+01
0.0000000000000000e+00 1.1100000000000000e+01
ITEM: ATOMS id type x y z
2 1 1.5134 1.14 1.23408
9 1 2.5597 2.81596 0.180161
13 1 2.38048 2.69233 5.56534
7 1 1.08845 1.23771 7.0212
14 1 -0.0991088 2.95085 8.39573
12 1 1.56485 4.31316 4.12142
11 1 0.25858 2.60734 2.80522
16 1 1.46733 4.42332 9.74731
18 1 1.37849 7.17238 1.54435
27 1 0.0281908 8.50508 3.20843
19 1 2.80741 5.54862 2.58862
23 1 1.5611 6.97264 6.84278
22 1 2.83257 5.35129 8.16178
3 1 3.0622 10.7293 2.63884
28 1 1.65826 9.60131 4.35219
29 1 3.05552 8.18344 5.46663
6 1 2.75598 11.1993 8.54588
5 1 -0.209323 11.0152 5.37952
32 1 1.42763 9.85475 9.85818
25 1 2.86383 8.04962 11.1312
34 1 6.61827 1.70861 1.72112
4 1 4.06711 1.1537 4.09744
39 1 7.05198 1.67043 6.72902
46 1 5.42222 2.64656 8.30015
8 1 3.93145 1.4333 9.85633
33 1 5.62239 0.16834 11.1643
10 1 4.34726 4.04918 1.24677
49 1 5.44233 5.52065 -0.3373
44 1 7.03842 4.20731 4.32163
43 1 5.21362 3.03114 3.09956
15 1 4.03554 3.81192 6.93246
48 1 6.83291 3.85356 9.85976
50 1 6.95681 6.82593 1.02079
59 1 5.847 8.08324 3.03842
20 1 4.30215 6.68807 4.04893
55 1 6.93882 6.7459 6.79586
53 1 5.27975 5.4338 5.73146
24 1 4.09345 6.967 9.30574
62 1 5.66733 8.45491 8.2279
26 1 4.43865 9.31026 1.23516
60 1 7.26748 9.77295 4.37352
37 1 5.53062 11.184 5.58739
31 1 4.14315 9.76701 7.06716
64 1 6.99182 10.0254 9.76762
36 1 9.58923 1.44529 4.00112
35 1 8.09142 0.0122651 2.60259
40 1 9.59551 1.58078 9.52529
38 1 8.21265 0.207643 8.14939
42 1 9.8154 4.0761 1.53435
51 1 8.41502 5.42717 2.5905
41 1 8.28899 2.70414 0.149144
47 1 9.62747 4.36293 6.93696
45 1 8.62043 2.91249 5.47139
54 1 8.25678 5.40451 8.58027
52 1 9.54991 6.98328 3.97831
21 1 11.1759 5.58291 5.47316
30 1 11.0614 8.51884 8.13452
56 1 9.73268 7.00903 9.66923
17 1 11.1323 5.71604 11.2334
58 1 9.65422 9.83478 1.43427
1 1 10.9896 11.2192 -0.0339909
57 1 8.18087 8.2864 0.0245994
61 1 8.53798 8.21804 5.68513
63 1 9.63623 9.9214 6.98031
ITEM: TIMESTEP
14500
ITEM: NUMBER OF ATOMS
64
ITEM: BOX BOUNDS pp pp pp
0.0000000000000000e+00 1.1100000000000000e+01
0.0000000000000000e+00 1.1100000000000000e+01
0.0000000000000000e+00 1.1100000000000000e+01
ITEM: ATOMS id type x y z
2 1 1.38807 1.35247 1.93624
3 1 3.20534 -0.206861 2.65589
7 1 1.76611 0.88636 6.60761
14 1 0.322903 2.51276 8.25498
12 1 1.25051 4.36893 4.1611
13 1 2.24109 3.00458 5.68853
16 1 1.45275 4.08762 9.62326
9 1 2.56205 2.71852 11.2517
18 1 1.39382 6.89409 1.27483
19 1 2.91318 5.29687 2.67734
23 1 1.1016 6.9468 7.17797
22 1 2.71551 5.7009 8.48072
28 1 1.70262 9.46391 4.20316
29 1 2.76299 7.80815 5.63617
5 1 0.0628154 11.1797 5.24164
32 1 1.13047 10.1237 9.54188
1 1 -0.0846577 11.1629 11.274
25 1 2.79202 8.2875 11.0726
6 1 2.89041 10.7837 8.23645
34 1 7.03364 1.78517 1.47277
4 1 3.81697 1.25738 4.38695
39 1 6.65784 1.45033 7.06414
46 1 5.22683 3.13802 8.2811
8 1 4.0712 1.28847 9.54312
10 1 4.22491 3.65214 1.52641
43 1 5.53288 2.49955 3.20945
44 1 7.17547 3.99057 4.08676
15 1 3.91024 4.4568 6.87514
48 1 6.73323 4.29121 9.48495
50 1 6.97481 6.44877 1.29047
49 1 5.44409 5.4048 -0.046012
59 1 5.64459 8.25427 2.62586
20 1 4.26653 6.7358 4.2053
53 1 5.62853 5.18102 5.28571
55 1 7.01062 6.71929 6.69288
62 1 5.92631 8.14752 8.37822
24 1 4.21905 7.09862 9.68238
26 1 4.44379 9.64269 1.24368
60 1 6.78694 9.76125 4.22146
37 1 5.40826 11.2359 5.62005
31 1 4.30831 9.36033 6.83465
64 1 6.8255 10.0102 9.61536
33 1 5.75381 11.2853 11.1647
35 1 8.38678 0.214439 2.89433
36 1 9.81512 1.67968 4.32589
45 1 8.33936 2.80319 5.74385
40 1 9.77211 1.70512 9.86378
42 1 9.95968 4.47174 1.40817
11 1 10.9445 2.98867 2.89256
47 1 10.0386 3.97562 7.19076
41 1 8.18432 3.17138 11.0549
17 1 11.2412 5.75217 10.7694
27 1 11.2736 8.56731 2.60611
52 1 10.0398 7.118 4.29333
51 1 8.69564 5.53954 2.96398
21 1 11.0151 5.55647 5.79667
56 1 9.34422 6.95112 9.44219
54 1 8.28482 5.33871 7.97639
58 1 9.45308 9.53609 1.28551
57 1 7.9535 8.22811 0.0556596
61 1 8.28741 8.3699 5.64185
63 1 9.74117 10.1121 6.71095
30 1 10.6632 8.48517 8.42171
38 1 8.2728 11.3675 8.32028
ITEM: TIMESTEP
15000
ITEM: NUMBER OF ATOMS
64
ITEM: BOX BOUNDS pp pp pp
0.0000000000000000e+00 1.1100000000000000e+01
0.0000000000000000e+00 1.1100000000000000e+01
0.0000000000000000e+00 1.1100000000000000e+01
ITEM: ATOMS id type x y z
2 1 1.82834 1.27683 1.56102
11 1 0.265911 2.53079 2.9327
7 1 1.52052 1.10314 7.15888
13 1 2.84684 2.68063 5.79089
1 1 0.143875 0.284797 11.0617
12 1 1.53491 4.12298 4.13165
21 1 0.159441 5.65715 5.32266
22 1 2.57408 5.32772 8.17296
16 1 1.21264 4.20512 9.67705
9 1 2.50516 2.84382 11.1067
18 1 1.29479 6.81304 1.22612
29 1 2.70693 8.01184 5.48741
19 1 2.72595 5.63157 2.86051
23 1 1.42681 6.99913 6.98634
25 1 2.68354 8.03621 10.9112
28 1 1.21977 9.5662 4.13786
3 1 2.91592 10.9476 3.05952
5 1 0.212902 10.9708 5.74405
6 1 3.22533 10.9706 8.20345
32 1 1.66373 9.98834 9.59731
34 1 7.12097 1.64072 1.50962
33 1 5.55479 0.235163 0.122324
4 1 4.37752 1.60467 4.25118
39 1 6.7839 1.47847 6.89244
8 1 3.89748 1.51547 9.77617
46 1 5.4024 2.66456 8.64555
10 1 3.76385 4.31434 1.41373
43 1 5.41324 2.94772 2.67296
49 1 5.7976 5.32782 0.441058
44 1 6.74991 4.12342 4.28781
15 1 4.16194 4.03661 7.07585
53 1 5.49891 5.34165 5.74561
48 1 6.95416 4.33644 9.51434
50 1 7.27609 6.80867 1.50274
59 1 5.78197 8.08149 2.79625
20 1 4.23673 6.92851 4.26652
55 1 6.81502 6.81449 7.16228
24 1 4.11321 6.56173 9.74652
26 1 4.22887 9.05535 1.36159
60 1 7.05758 9.74565 3.77321
37 1 5.72997 11.0061 5.27128
31 1 4.06255 9.59077 6.30905
62 1 5.25588 8.25001 8.17759
64 1 6.67353 9.95943 9.48437
36 1 9.95053 1.4855 4.68408
35 1 8.69011 0.232838 2.96976
40 1 9.61963 1.40128 9.6328
42 1 9.55729 3.9315 1.39523
17 1 10.8604 5.49833 0.0210651
51 1 8.577 5.14456 3.08569
47 1 9.871 4.3784 6.84321
14 1 11.1398 2.74371 8.15405
45 1 8.34824 2.95878 5.62536
41 1 8.19512 2.78223 10.8651
27 1 10.7621 8.18853 2.53061
52 1 9.70781 6.98647 4.34493
61 1 7.90257 8.24533 5.50343
56 1 9.64409 7.58209 9.73295
54 1 8.63967 5.77037 8.31459
58 1 9.60955 10.2043 1.13458
57 1 8.00728 8.80452 -0.0382406
63 1 9.42375 9.72574 6.68603
38 1 8.19673 11.084 8.103
30 1 11.1219 8.81408 8.28178
ITEM: TIMESTEP
15500
ITEM: NUMBER OF ATOMS
64
ITEM: BOX BOUNDS pp pp pp
0.0000000000000000e+00 1.1100000000000000e+01
0.0000000000000000e+00 1.1100000000000000e+01
0.0000000000000000e+00 1.1100000000000000e+01
ITEM: ATOMS id type x y z
2 1 1.53406 1.51605 1.14333
3 1 2.83321 0.188723 2.7137
11 1 0.112106 2.59007 2.7578
5 1 0.368415 0.157922 5.43062
13 1 2.95523 2.61789 5.36167
7 1 1.73208 1.33124 7.04749
12 1 1.1325 3.92239 4.54913
19 1 2.61217 5.14153 2.86649
22 1 2.90978 5.51353 8.21519
16 1 1.24782 4.38349 9.46916
9 1 2.61287 3.09329 10.8466
18 1 1.64673 6.92408 1.48308
17 1 -0.0352568 5.60269 0.169511
29 1 2.66029 8.23219 5.17362
23 1 1.50195 6.96122 6.93792
25 1 2.82658 8.5123 0.0862851
28 1 1.3744 9.72701 3.76283
6 1 3.03532 10.9581 8.23669
32 1 1.20522 9.69354 9.56684
34 1 7.056 1.19197 1.63401
33 1 5.68107 -0.0098206 0.361502
4 1 4.42554 1.22556 4.20169
43 1 5.70931 2.73021 2.79909
39 1 6.89985 1.56819 6.98871
8 1 4.31816 1.42235 10.0158
10 1 4.20939 4.08099 1.55866
49 1 5.33128 5.48235 0.098449
44 1 6.83204 4.38554 3.94865
15 1 4.07129 3.98433 6.71586
46 1 5.51027 2.85068 8.30611
53 1 5.81515 5.389 5.68656
48 1 6.73204 4.2977 9.91317
50 1 6.91209 7.16474 1.38296
59 1 5.19806 8.01708 2.72292
20 1 4.12877 6.51859 4.23608
55 1 7.08624 6.807 7.09338
62 1 5.40004 8.10707 8.17482
24 1 4.08435 7.03547 9.79538
26 1 4.11114 9.76761 1.50152
60 1 6.76279 9.5865 3.87677
31 1 4.27497 9.48215 6.66551
37 1 5.60576 11.0555 5.58907
64 1 6.39127 9.84587 9.58419
1 1 10.9445 0.290605 0.0632562
36 1 9.80989 1.32055 4.1362
45 1 8.09467 2.73045 5.44278
14 1 11.0836 2.66065 8.25193
40 1 9.54742 1.57618 9.64592
38 1 8.2587 0.162031 8.46333
42 1 9.95412 4.27173 1.68321
41 1 8.30175 2.98773 0.12204
47 1 9.48253 4.28499 6.98127
21 1 11.0118 5.48288 5.85857
54 1 8.34502 5.51165 8.62736
52 1 9.75539 7.05779 4.56769
51 1 8.52389 5.91006 2.78977
27 1 11.0485 8.04916 2.83203
56 1 9.86155 6.91706 9.59075
58 1 9.69083 9.59525 1.28369
35 1 8.49438 10.8265 2.89072
63 1 9.83349 10.0155 6.69986
61 1 8.15832 8.5457 5.59465
30 1 11.1048 8.4028 8.0322
57 1 8.1825 8.44683 10.774
ITEM: TIMESTEP
16000
ITEM: NUMBER OF ATOMS
64
ITEM: BOX BOUNDS pp pp pp
0.0000000000000000e+00 1.1100000000000000e+01
0.0000000000000000e+00 1.1100000000000000e+01
0.0000000000000000e+00 1.1100000000000000e+01
ITEM: ATOMS id type x y z
2 1 1.18674 1.63525 1.16572
3 1 2.73706 0.0867811 2.66451
11 1 -0.185379 2.89645 2.77871
13 1 2.91561 2.72781 5.0933
7 1 1.63387 1.62477 6.723
6 1 2.76574 0.266687 8.24758
9 1 3.09853 2.67214 0.227528
19 1 2.89893 5.25779 2.77082
12 1 1.36348 4.14355 3.93455
16 1 1.28129 3.80644 10.0427
14 1 -0.0158545 2.78828 8.31587
22 1 2.71581 5.1724 8.5344
18 1 1.63295 6.83717 1.41841
27 1 0.177095 8.28141 2.76442
21 1 0.0333189 5.48435 5.90763
23 1 1.6848 6.81629 7.10712
25 1 2.3122 8.68755 -0.15208
28 1 1.52801 9.65774 4.2405
29 1 2.85732 8.21023 5.72801
32 1 1.29722 9.80669 9.21019
1 1 0.297781 10.9743 11.0924
34 1 7.0148 1.58498 1.26802
4 1 4.13657 1.03538 4.26237
43 1 5.66356 2.53536 3.03496
39 1 7.10676 1.27702 7.0455
8 1 4.34453 1.42896 9.66881
10 1 4.54207 4.04376 1.56965
44 1 6.95468 4.08398 4.22514
15 1 4.02068 3.97867 6.61615
46 1 5.72059 2.75566 8.21928
48 1 6.64571 4.52484 9.76882
50 1 6.68082 6.80035 1.46068
20 1 4.15979 6.66718 4.19651
53 1 5.7535 5.49345 5.61313
55 1 6.88424 7.18746 6.82245
24 1 3.86735 7.0892 9.74966
49 1 5.11415 5.68262 11.1683
26 1 4.12487 9.60101 1.19079
59 1 5.32852 8.11524 2.97767
60 1 6.87021 9.63235 3.96348
31 1 4.04667 9.83305 6.75744
62 1 5.17682 8.48511 8.24317
37 1 5.73492 11.1155 5.59642
64 1 6.92232 9.51733 9.50119
33 1 5.75045 11.1093 11.0586
35 1 8.05249 -0.0863751 2.60849
36 1 9.64284 1.16481 4.1243
5 1 11.1932 -0.0115828 5.6946
45 1 8.34589 2.60883 5.5391
40 1 9.73219 1.52748 9.91643
42 1 9.73551 4.49806 1.47384
17 1 11.0513 5.56323 -0.138506
47 1 9.5526 4.14215 6.91235
41 1 8.23257 3.14859 11.0895
57 1 8.02001 8.57474 0.542029
51 1 8.30982 5.56924 2.85626
52 1 9.86478 7.1262 4.21051
61 1 8.52899 8.52933 5.20264
54 1 8.3872 5.68985 8.42477
56 1 9.48688 7.1228 9.93776
30 1 11.0983 8.15264 8.13903
58 1 10.1205 9.74472 1.50914
63 1 9.62087 9.70059 6.87388
38 1 8.34307 11.0228 8.49033
ITEM: TIMESTEP
16500
ITEM: NUMBER OF ATOMS
64
ITEM: BOX BOUNDS pp pp pp
0.0000000000000000e+00 1.1100000000000000e+01
0.0000000000000000e+00 1.1100000000000000e+01
0.0000000000000000e+00 1.1100000000000000e+01
ITEM: ATOMS id type x y z
2 1 1.45566 1.28089 1.42927
3 1 2.77964 -0.0219203 2.7003
7 1 0.992783 1.51704 6.81325
9 1 2.89031 2.83966 11.1831
12 1 1.75503 3.86957 4.20769
19 1 2.96814 5.39479 2.89757
11 1 0.048366 2.75941 2.79094
13 1 3.14757 2.40187 5.53964
16 1 1.52619 4.55681 9.5377
18 1 1.42423 6.6939 1.48905
23 1 1.52709 6.80354 6.79757
22 1 3.04253 5.58179 7.99342
25 1 2.85718 8.41846 0.13988
28 1 1.47102 9.91421 4.16566
29 1 2.61301 8.44151 5.39618
32 1 1.47867 9.81491 9.88077
1 1 0.0727571 11.3154 11.0647
6 1 2.48925 11.3281 8.26757
34 1 6.91316 0.965459 1.39283
4 1 4.44037 1.32378 3.90404
37 1 5.43432 -0.0186535 5.54376
39 1 7.05452 1.31998 6.60987
8 1 4.22175 1.26498 9.53509
10 1 4.35683 4.08416 1.37273
43 1 5.8682 2.88029 2.74728
44 1 6.7755 4.41624 4.40091
15 1 4.43977 3.84287 7.15216
48 1 7.02554 4.14501 9.90073
46 1 6.04427 2.47157 8.5131
49 1 5.52935 5.716 11.0888
50 1 6.86271 7.22291 1.46367
20 1 3.97183 7.16137 4.18142
55 1 6.62866 6.81651 7.10318
53 1 5.15482 5.67513 5.84372
24 1 3.95266 6.98336 9.77764
26 1 4.22382 9.75126 1.30375
59 1 5.34506 8.41756 2.80845
60 1 7.05149 9.60991 4.34109
31 1 3.83049 9.774 6.71713
62 1 5.34433 8.50155 8.14555
64 1 6.95122 9.81255 9.46788
33 1 5.3183 10.958 10.8701
41 1 8.12372 2.63342 0.151438
36 1 9.78101 1.27502 4.06142
45 1 8.60725 2.98238 5.3372
35 1 8.42281 -0.136648 2.7503
5 1 10.902 -0.0195036 5.6538
38 1 8.29922 0.0569869 8.19906
40 1 9.58695 1.53958 9.54092
42 1 9.63907 4.06671 1.52358
51 1 8.22881 5.69343 2.79548
47 1 9.60149 4.44962 7.04805
14 1 10.9956 3.03531 8.48961
54 1 8.16973 5.88921 8.72688
17 1 11.0199 5.50873 11.0619
27 1 11.2093 8.16114 2.66428
57 1 8.04917 8.40953 -0.0156928
52 1 9.94395 6.90801 4.10859
21 1 11.0677 5.34262 5.31519
61 1 8.21575 8.01586 5.63926
56 1 9.66767 7.01365 10.0183
30 1 11.2131 8.17819 8.53328
58 1 9.73223 9.63091 1.32626
63 1 9.64523 9.46002 6.89188
ITEM: TIMESTEP
17000
ITEM: NUMBER OF ATOMS
64
ITEM: BOX BOUNDS pp pp pp
0.0000000000000000e+00 1.1100000000000000e+01
0.0000000000000000e+00 1.1100000000000000e+01
0.0000000000000000e+00 1.1100000000000000e+01
ITEM: ATOMS id type x y z
2 1 1.50006 1.37376 1.1773
9 1 2.91717 2.68478 -0.171786
7 1 1.38738 1.43063 6.84466
14 1 0.213098 2.85407 8.4057
12 1 1.73685 4.22043 4.30066
13 1 3.00851 2.773 5.59623
16 1 1.58474 4.35765 9.7279
22 1 2.84734 5.71836 8.33785
18 1 1.57133 7.13332 1.58604
19 1 3.29002 5.59989 2.69262
23 1 1.15886 6.89169 7.07177
3 1 2.66211 11.2228 2.74265
1 1 -0.308724 10.9546 -0.166731
28 1 1.29895 9.57567 4.03629
27 1 -0.180847 8.29956 2.71337
29 1 2.62627 8.18735 5.65183
5 1 0.0227444 11.1564 5.36888
32 1 1.35436 9.71663 9.5926
25 1 2.62818 8.34294 11.0954
6 1 2.7072 11.0526 8.30033