ITEM: TIMESTEP
10000
ITEM: NUMBER OF ATOMS
64
ITEM: BOX BOUNDS pp pp pp
0.0000000000000000e+00 1.1160000000000000e+01
0.0000000000000000e+00 1.1160000000000000e+01
0.0000000000000000e+00 1.1160000000000000e+01
ITEM: ATOMS id type x y z
4 1 1.2598 0.725121 0.991962
6 1 0.851019 0.704841 4.31343
13 1 2.22047 0.476788 6.33434
25 1 1.84382 2.60546 9.66342
49 1 1.04602 3.65288 0.945337
15 1 3.68357 4.49511 1.83326
11 1 2.44069 2.97416 4.08889
45 1 0.910415 5.16053 3.9293
24 1 1.75496 3.68404 6.72262
32 1 1.46688 6.28396 0.465265
2 1 2.60995 7.02484 3.24564
37 1 0.516574 6.25242 5.99432
36 1 2.97176 6.72449 6.08357
48 1 1.81471 5.98836 8.9152
60 1 2.87787 8.55965 1.07572
51 1 3.62615 11.0347 1.71543
62 1 0.617011 9.6074 2.76804
22 1 3.37992 10.037 4.2685
52 1 1.4484 8.49198 7.09971
47 1 2.24126 10.6733 9.74993
18 1 0.107822 8.79993 9.75312
53 1 4.93119 2.17018 2.47131
44 1 7.37978 1.59638 1.68069
28 1 4.74024 0.585 6.79519
23 1 5.38072 1.07092 9.75662
20 1 4.53706 3.92651 4.93771
19 1 7.03136 3.78587 3.84934
21 1 4.52179 2.92919 7.58078
40 1 6.91418 4.0899 6.82702
14 1 4.11751 5.26002 9.58242
8 1 4.37572 3.15466 11.1543
46 1 6.66969 3.80014 10.2633
30 1 4.92473 6.19524 4.12271
3 1 7.40308 7.52698 3.7586
29 1 5.70995 6.42847 7.16861
61 1 4.92059 7.96484 10.2163
35 1 6.69039 6.40259 9.56516
1 1 5.47626 8.40157 1.46478
55 1 5.83635 10.5675 0.353709
26 1 5.39399 11.0962 4.46681
58 1 4.80757 8.56235 5.74478
64 1 3.75945 9.22705 8.13258
57 1 6.73532 9.22623 7.51549
56 1 10.0597 2.42357 3.14919
10 1 8.51228 1.69995 5.02463
7 1 10.7622 2.2717 6.45898
12 1 8.02823 0.0400194 6.98338
31 1 7.81568 2.07809 8.83185
16 1 10.7791 1.59045 8.95054
34 1 9.56332 0.654471 11.0612
9 1 7.60097 4.57729 1.30908
54 1 9.79535 2.94505 0.32408
33 1 9.35533 4.76174 4.26146
63 1 9.20214 4.69781 6.96561
39 1 11.132 4.287 9.28945
59 1 9.55743 5.74811 0.420206
17 1 9.60353 7.69812 2.44848
50 1 8.28692 7.24864 6.20938
41 1 9.44469 6.87843 9.30567
43 1 9.36012 10.1519 2.22318
42 1 7.71328 10.5697 4.05302
38 1 10.3044 8.63445 5.22378
27 1 10.3293 10.4086 7.42162
5 1 7.96803 9.83006 9.84
ITEM: TIMESTEP
10500
ITEM: NUMBER OF ATOMS
64
ITEM: BOX BOUNDS pp pp pp
0.0000000000000000e+00 1.1160000000000000e+01
0.0000000000000000e+00 1.1160000000000000e+01
0.0000000000000000e+00 1.1160000000000000e+01
ITEM: ATOMS id type x y z
6 1 1.84963 0.223317 3.46142
11 1 1.76335 2.43109 4.26916
28 1 3.33035 1.76118 6.29847
25 1 0.916279 2.26441 10.3447
47 1 1.4593 0.508879 8.39428
49 1 0.334748 3.67319 1.8816
8 1 3.03498 3.56231 0.436931
45 1 1.11625 4.83256 3.90652
24 1 0.658195 4.20083 7.56179
21 1 3.12854 3.82441 8.85801
32 1 3.29891 6.43943 0.178901
59 1 1.03536 6.32383 0.295439
62 1 0.534264 7.65623 2.58396
2 1 3.23154 5.68399 3.27081
52 1 2.10325 8.46929 4.20188
36 1 3.46268 6.53778 6.28366
48 1 0.8101 8.2452 8.27296
37 1 0.979478 6.1768 5.86464
14 1 3.14924 6.57272 8.65364
4 1 1.20709 11.2343 0.229419
13 1 0.874642 10.0239 5.8463
18 1 1.45744 8.50924 10.6407
64 1 3.41353 9.57579 8.2851
53 1 4.31078 0.851072 2.33135
44 1 7.05472 1.48754 1.46639
26 1 5.44364 0.611372 4.67521
23 1 4.40672 0.441215 9.43107
46 1 5.67505 2.65765 10.5277
9 1 6.65109 4.61183 1.6337
19 1 6.18798 3.33969 3.89432
15 1 3.79706 3.38953 2.7157
40 1 7.10295 4.34942 7.48606
20 1 4.68606 3.85212 6.61925
35 1 6.07233 4.92807 10.027
60 1 5.99444 7.29228 1.36802
30 1 5.94393 5.95666 4.21511
29 1 6.10446 7.44776 7.03494
61 1 5.50283 7.292 9.53947
55 1 6.57182 9.51632 0.115244
22 1 3.73945 8.41032 2.33143
51 1 4.0736 10.1391 0.533904
1 1 5.19321 9.14133 4.13631
58 1 5.59927 9.57568 6.68112
57 1 6.90006 10.7289 8.79871
56 1 10.6457 0.567587 2.52784
34 1 9.53438 0.932122 -0.0977096
10 1 9.42257 2.33755 4.14723
42 1 7.72757 0.459856 4.82913
7 1 11.2596 2.01269 6.35179
12 1 8.96767 0.691347 6.88559
31 1 7.93647 2.30309 8.68079
54 1 8.94918 3.64833 1.59111
63 1 9.12728 4.98823 5.59038
39 1 10.9151 5.69927 9.34701
16 1 9.67634 3.68599 10.258
17 1 9.16857 7.94023 1.24386
3 1 8.08479 6.9974 4.83777
33 1 9.51201 5.69749 2.78345
50 1 10.1796 8.12215 6.34002
41 1 8.64291 6.43607 8.27102
43 1 7.84094 9.75072 2.27652
38 1 9.67824 10.121 4.4461
5 1 8.3505 8.61929 9.6809
27 1 10.18 10.199 9.22684
ITEM: TIMESTEP
11000
ITEM: NUMBER OF ATOMS
64
ITEM: BOX BOUNDS pp pp pp
0.0000000000000000e+00 1.1160000000000000e+01
0.0000000000000000e+00 1.1160000000000000e+01
0.0000000000000000e+00 1.1160000000000000e+01
ITEM: ATOMS id type x y z
15 1 2.66305 2.09064 2.12287
11 1 2.0724 1.16522 4.51592
47 1 2.1556 1.42421 7.59884
25 1 0.829534 1.5625 10.1038
23 1 3.25566 1.36978 9.80758
2 1 2.71724 4.47925 2.52899
59 1 0.0824743 5.46905 0.970048
20 1 1.93627 5.15916 5.05084
21 1 3.50274 4.69813 7.65448
28 1 3.4428 2.92332 5.91737
8 1 2.26451 4.00925 10.7142
22 1 3.6444 7.64713 0.985548
62 1 0.605666 6.8398 3.39911
37 1 2.44022 8.06146 5.61692
41 1 0.56953 6.89771 8.24277
39 1 1.47238 6.55709 10.5537
18 1 1.07701 8.38684 1.03122
6 1 1.2757 9.86834 3.41326
64 1 2.37272 10.0033 7.01064
48 1 2.86933 8.67791 9.05104
4 1 0.351616 10.3527 10.5452
44 1 6.09627 1.0089 1.4063
19 1 5.31018 2.32049 4.29642
42 1 7.07513 1.88648 6.06484
57 1 6.22006 1.32144 9.28716
9 1 6.79297 3.04887 2.3331
32 1 5.15488 4.89736 0.198885
30 1 5.19079 5.49012 4.26157
40 1 5.71615 4.81297 6.61867
46 1 6.42258 3.16607 10.8469
60 1 6.53545 5.69155 2.46861
36 1 5.12624 7.79383 6.16704
61 1 6.30967 7.11897 10.6546
14 1 4.47405 6.7391 8.51366
53 1 4.22169 10.7556 2.06572
1 1 6.74989 8.74944 2.82056
26 1 4.68215 10.708 4.75673
52 1 4.01737 8.39256 3.68979
58 1 5.32571 10.3684 7.08642
29 1 7.01784 8.93464 7.94082
55 1 5.7961 10.2073 9.79625
51 1 3.96509 10.3126 10.8139
56 1 10.6601 0.258281 1.45493
49 1 10.5538 2.73797 1.92601
38 1 9.13352 0.478447 3.71702
7 1 10.8951 2.15903 6.69011
34 1 8.46674 0.354453 11.0485
54 1 8.80893 4.70052 1.0353
10 1 8.50799 3.61855 4.51373
45 1 10.8809 2.87962 4.28044
63 1 8.15264 5.55002 6.78215
24 1 11.1044 4.34022 7.83521
31 1 7.67102 3.19285 7.99678
16 1 10.086 3.49528 9.98338
5 1 9.67518 7.34403 1.00264
3 1 7.93128 7.66459 5.32263
33 1 9.31323 6.22306 4.20937
50 1 11.0185 8.12913 5.8128
35 1 8.65058 6.06161 9.16507
27 1 9.85137 7.87955 9.81041
43 1 7.70465 9.11662 0.264827
17 1 9.48043 8.97744 2.95111
13 1 10.6508 10.6534 5.82453
12 1 9.28182 11.098 7.73067
ITEM: TIMESTEP
11500
ITEM: NUMBER OF ATOMS
64
ITEM: BOX BOUNDS pp pp pp
0.0000000000000000e+00 1.1160000000000000e+01
0.0000000000000000e+00 1.1160000000000000e+01
0.0000000000000000e+00 1.1160000000000000e+01
ITEM: ATOMS id type x y z
15 1 2.35443 1.18215 2.94741
25 1 1.57356 1.90651 0.504274
28 1 2.40138 2.37962 5.13092
47 1 2.63148 2.26914 7.89384
59 1 1.07053 4.76992 2.35138
2 1 3.51238 3.70928 3.08953
20 1 1.42136 4.68544 5.45345
24 1 1.36732 5.39846 7.91771
8 1 3.6495 2.64302 10.8748
21 1 3.63817 5.20368 9.02683
16 1 0.226282 3.13848 9.12785
39 1 0.86466 5.51667 10.9914
62 1 1.7037 7.27207 2.90552
52 1 3.47509 8.21538 1.00806
30 1 3.45177 6.08185 4.45626
41 1 -0.147799 7.51262 6.8107
37 1 2.45567 8.00573 6.09081
22 1 2.37571 7.70923 9.6003
18 1 1.24196 9.70354 1.67083
26 1 2.75095 10.3965 4.94984
11 1 -0.0110397 10.4744 5.1512
64 1 3.35291 10.8311 7.39783
51 1 3.24945 10.5614 9.82958
4 1 0.593743 10.9933 10.528
27 1 0.748495 9.09173 8.4274
44 1 7.35731 -0.143139 1.16688
9 1 6.31011 2.06477 2.28005
19 1 5.34172 0.560206 4.06147
58 1 5.53788 0.865113 6.42141
23 1 5.16436 0.774622 10.8733
32 1 5.32525 4.92912 1.99099
40 1 5.43799 4.52687 5.05665
57 1 5.02299 3.33363 7.71616
31 1 7.64563 4.29156 8.29732
46 1 6.53602 3.40324 10.7657
1 1 6.38865 8.39802 1.08791
61 1 6.73566 5.96287 -0.296962
60 1 6.11761 7.10251 3.0363
14 1 6.41448 6.11321 6.73551
48 1 4.16047 6.95617 7.5337
55 1 5.38975 8.07054 9.27516
53 1 4.09449 10.7822 1.72926
36 1 5.15706 8.93176 4.57045
3 1 6.28549 9.73274 6.7423
49 1 9.9518 2.88807 2.0554
56 1 10.6914 0.39126 2.54374
45 1 10.8313 2.43465 4.70721
42 1 8.26135 2.17289 6.39841
7 1 10.6657 1.80223 7.16731
34 1 9.37614 2.88176 10.4954
12 1 9.4953 0.567846 8.76881
54 1 7.71333 4.98523 2.11858
10 1 7.56063 3.72101 4.09439
33 1 10.2297 4.95051 3.9788
5 1 10.1507 8.24291 0.949903
35 1 9.63131 6.01655 -0.124217
50 1 8.99984 7.04371 5.42094
63 1 8.8353 7.02576 8.79196
17 1 8.37871 8.2812 3.27623
38 1 8.156 10.7134 3.46946
6 1 11.0302 8.25106 4.09729
13 1 8.65529 10.8238 6.03033
29 1 7.78563 9.11768 8.89085
43 1 9.18589 9.66126 10.8098
ITEM: TIMESTEP
12000
ITEM: NUMBER OF ATOMS
64
ITEM: BOX BOUNDS pp pp pp
0.0000000000000000e+00 1.1160000000000000e+01
0.0000000000000000e+00 1.1160000000000000e+01
0.0000000000000000e+00 1.1160000000000000e+01
ITEM: ATOMS id type x y z
25 1 1.49684 1.5611 1.05162
15 1 2.53128 2.76486 3.15677
28 1 0.503845 1.85447 5.8618
47 1 2.55219 2.7236 7.45773
4 1 1.85802 0.0821088 10.2129
59 1 0.667012 5.11808 1.9101
2 1 3.06407 5.29592 1.44052
20 1 0.857435 4.22564 5.05202
24 1 1.36216 4.82601 8.29871
16 1 0.771245 3.03715 9.74439
62 1 2.79165 8.14029 4.57071
30 1 3.31848 5.66673 5.17429
6 1 1.40283 7.29635 7.0291
39 1 0.151979 6.11692 10.5001
37 1 3.02076 8.31135 8.51019
18 1 1.48562 9.10021 1.95287
36 1 2.77569 10.8326 4.03417
26 1 1.99179 10.7258 6.50566
22 1 2.78997 8.97635 10.8265
9 1 4.55134 1.79669 1.61779
10 1 7.09822 1.75147 1.66231
19 1 4.1108 1.97108 5.15178
38 1 5.90793 0.59192 3.72379
58 1 5.89431 1.2641 7.24247
23 1 6.92398 1.03777 10.2712
51 1 3.72357 1.40618 9.27071
54 1 6.53661 4.48778 1.85393
40 1 5.11137 4.27801 4.15501
57 1 5.24042 3.85524 7.70335
14 1 7.09156 4.87911 5.75325
46 1 7.07516 3.26119 9.29449
8 1 4.96823 3.86665 11.0125
52 1 4.15922 7.882 1.84148
60 1 6.37861 6.80778 3.24977
48 1 4.60224 6.23176 7.5048
32 1 6.05787 6.98281 10.7818
21 1 3.892 5.81546 10.1316
61 1 7.24737 6.48722 8.52311
53 1 5.05449 10.2183 0.390577
3 1 5.38905 8.39806 5.44742
1 1 6.00333 9.32757 2.92263
64 1 4.36779 10.4122 7.43874
55 1 5.66824 9.22707 9.33981
45 1 10.7072 1.16992 3.29265
42 1 8.68932 2.12501 4.84067
12 1 9.62187 0.58313 10.8359
7 1 10.6063 1.09082 8.69432
49 1 9.95203 3.48286 2.52459
33 1 9.49859 5.20723 4.92144
31 1 9.53424 2.82678 7.51245
41 1 10.237 5.21136 7.59431
34 1 9.27487 3.27286 11.1587
17 1 8.36834 6.74438 1.68088
50 1 8.50863 8.15384 4.54602
5 1 10.3593 7.05518 3.10573
63 1 8.69749 8.06011 7.19165
35 1 8.8753 5.59425 10.3301
44 1 8.83646 8.92582 0.674603
56 1 10.0552 10.0412 2.88015
13 1 7.80669 11.1401 5.6563
27 1 11.0057 8.94761 7.91078
11 1 10.1311 9.70081 5.75151
43 1 10.8909 8.86154 10.6259
29 1 8.17701 10.0323 9.29687
ITEM: TIMESTEP
12500
ITEM: NUMBER OF ATOMS
64
ITEM: BOX BOUNDS pp pp pp
0.0000000000000000e+00 1.1160000000000000e+01
0.0000000000000000e+00 1.1160000000000000e+01
0.0000000000000000e+00 1.1160000000000000e+01
ITEM: ATOMS id type x y z
25 1 0.271635 1.08796 1.23733
9 1 2.89868 1.19494 0.43599
15 1 2.44383 2.19094 2.7035
36 1 1.8893 1.38959 4.80847
47 1 1.82744 2.66332 6.84509
26 1 1.47295 0.0698222 8.26736
59 1 0.91611 4.86995 0.917575
20 1 1.13533 4.43074 3.41328
24 1 2.15552 5.41324 6.42893
16 1 0.923494 2.75424 10.0702
2 1 3.65225 6.09606 1.2555
43 1 1.6456 7.52815 1.44298
30 1 2.20257 6.54035 3.66024
37 1 1.95633 6.6306 9.08989
18 1 1.61144 10.2323 2.14842
6 1 1.37721 9.05121 4.5777
62 1 3.08211 10.1551 6.09976
4 1 1.49905 9.69158 10.4856
38 1 4.6183 2.38954 4.28104
42 1 7.32947 2.25196 5.06386
23 1 6.51484 0.219615 8.50515
51 1 3.66454 2.15789 8.92904
53 1 5.71538 0.885862 11.0288
54 1 7.27761 2.79907 1.96452
8 1 4.60848 3.06687 1.12756
40 1 4.65159 5.51809 3.61335
14 1 7.2957 5.20078 5.62631
19 1 4.72022 3.67348 6.51741
57 1 5.37469 3.98706 9.70116
17 1 7.4276 5.82137 1.6453
60 1 6.22781 7.25137 3.41649
48 1 4.83819 6.37309 6.9658
55 1 6.77218 8.10569 8.26151
21 1 4.96907 7.44191 10.6787
61 1 6.97333 5.57372 9.04388
52 1 4.2115 9.09412 2.60513
32 1 6.97912 8.45604 0.279515
1 1 4.94408 10.7732 4.19448
3 1 5.96631 8.92832 5.72595
22 1 4.06378 9.98791 11.4519
64 1 4.07041 10.709 8.38597
10 1 7.56303 0.28009 1.21512
45 1 10.5969 0.566933 4.6449
49 1 9.62083 2.86918 3.78366
28 1 10.1454 1.9513 6.63649
7 1 10.0188 1.07412 8.73153
46 1 7.82878 2.42196 9.9179
34 1 9.54209 3.19313 0.788378
33 1 9.99316 5.10172 4.15961
41 1 10.7166 5.58194 6.55537
31 1 8.60442 3.72097 7.18604
35 1 8.88991 5.15287 10.3716
39 1 10.9949 4.70027 9.04216
5 1 9.94198 6.42609 1.91504
50 1 8.36157 7.89656 4.32869
63 1 9.19183 7.5753 7.15548
44 1 9.60044 7.50456 10.8822
27 1 11.0782 8.04024 8.93701
12 1 9.59535 10.2988 0.319457
56 1 10.193 8.93066 2.704
13 1 7.84339 10.2928 3.41027
11 1 10.7783 9.91231 6.45161
58 1 7.52647 10.7725 6.02274
29 1 8.63944 10.1995 9.06012
ITEM: TIMESTEP
13000
ITEM: NUMBER OF ATOMS
64
ITEM: BOX BOUNDS pp pp pp
0.0000000000000000e+00 1.1160000000000000e+01
0.0000000000000000e+00 1.1160000000000000e+01
0.0000000000000000e+00 1.1160000000000000e+01
ITEM: ATOMS id type x y z
15 1 1.97804 0.757418 2.26732
9 1 2.46437 0.388157 10.1661
16 1 -0.133351 2.87382 10.7503
59 1 1.41267 5.29299 0.476529
20 1 0.687046 3.11306 2.43332
47 1 2.08748 3.24959 4.52088
41 1 0.72525 5.19715 4.88876
51 1 1.70835 2.78595 8.36895
43 1 3.55749 5.85818 1.7018
30 1 3.51622 7.23317 4.20286
6 1 0.572169 7.68883 4.13369
24 1 1.54376 6.81878 6.58974
27 1 0.315154 7.86241 9.54408
37 1 1.53793 5.63104 8.96349
18 1 2.78053 9.19327 2.51196
12 1 0.35173 8.92172 0.600849
4 1 3.36208 7.99859 0.100121
62 1 3.60833 8.64247 6.68615
11 1 0.798418 9.53846 7.24883
36 1 2.03704 10.8441 5.59432
26 1 0.161485 10.8803 9.73447
64 1 3.62413 9.54111 9.21936
8 1 4.1696 2.21174 1.17002
54 1 6.44247 2.94095 2.70445
1 1 3.79752 1.30135 4.49894
38 1 4.61868 2.49405 6.48996
53 1 6.3977 0.962475 10.1074
14 1 5.64245 4.37002 4.55168
40 1 3.6912 4.10353 3.00161
19 1 3.56659 4.94336 7.50896
57 1 4.15782 2.8465 9.94545
46 1 6.43862 3.01171 8.67915
2 1 5.24251 6.31709 -0.0929412
17 1 6.9041 6.10406 2.25209
48 1 5.97749 7.27649 5.8476
61 1 6.3707 5.95124 8.21318
22 1 4.76364 10.8412 1.03815
52 1 5.30203 10.5793 3.58077
60 1 7.1084 8.12186 3.67676
3 1 6.35568 10.4676 5.77363
55 1 7.33176 8.50862 8.13357
23 1 5.27754 10.971 8.15854
21 1 5.92308 8.57415 10.428
25 1 10.1576 0.376282 1.57288
10 1 7.83598 1.1236 1.21286
49 1 9.6622 2.80483 3.86142
13 1 7.74188 0.462081 3.77379
28 1 10.9486 1.85756 6.85003
42 1 7.14628 1.66386 6.48305
7 1 9.16775 2.77042 8.80257
34 1 8.52854 3.54461 1.46357
33 1 9.50261 5.64086 4.12551
31 1 7.87371 4.96805 6.08956
39 1 10.1505 5.43133 7.57436
35 1 8.73741 4.80685 9.96514
5 1 9.77244 5.92984 1.32661
63 1 9.50708 7.90542 7.40034
44 1 9.12266 7.466 10.4247
32 1 7.94427 9.42647 0.417403
56 1 9.84355 8.28738 2.52918
50 1 9.07591 9.10529 5.35787
45 1 11.2766 10.5295 4.1986
58 1 9.03891 11.2113 6.74389
29 1 8.74961 10.9195 9.41584
ITEM: TIMESTEP
13500
ITEM: NUMBER OF ATOMS
64
ITEM: BOX BOUNDS pp pp pp
0.0000000000000000e+00 1.1160000000000000e+01
0.0000000000000000e+00 1.1160000000000000e+01
0.0000000000000000e+00 1.1160000000000000e+01
ITEM: ATOMS id type x y z
20 1 0.541016 2.55911 1.08941
47 1 0.894726 2.53374 4.42242
28 1 0.708326 1.82672 7.36689
51 1 2.34943 2.12046 10.507
59 1 1.06601 5.15641 0.351842
40 1 3.10831 3.24809 2.67147
43 1 3.22642 5.3633 1.27714
38 1 3.48615 4.16744 4.993
19 1 3.24507 4.63108 7.29384
37 1 1.31102 4.65291 8.92596
27 1 0.742403 7.70165 0.102448
6 1 0.990893 6.09371 3.91839
30 1 3.29298 7.00181 3.53229
24 1 0.919609 8.10162 6.05519
62 1 3.58657 7.78734 6.15337
4 1 3.31998 7.80665 11.0869
15 1 1.86216 11.0853 1.52508
45 1 1.317 10.9384 4.9562
12 1 0.515216 8.85556 3.10043
23 1 2.84604 11.0813 7.71132
9 1 2.6618 10.4812 10.1807
11 1 0.801227 8.39802 8.60438
8 1 4.6508 2.3036 0.664884
10 1 7.09449 2.06031 0.850797
1 1 4.88328 0.887253 3.08056
42 1 5.20537 2.26318 5.6651
57 1 3.9283 2.129 8.06645
53 1 6.46852 0.324257 9.21256
54 1 6.55297 3.58531 3.42191
31 1 7.1092 5.08836 6.13927
46 1 6.45254 3.10835 8.88066
2 1 5.47657 4.82072 11.1621
60 1 6.3838 8.28809 1.25849
17 1 7.32433 6.08266 1.63941
48 1 6.7239 8.06625 4.21877
14 1 5.19518 5.74067 4.10354
61 1 5.44349 5.61155 8.26671
64 1 4.86018 8.13196 8.72626
18 1 3.66685 9.14207 2.22878
22 1 6.13417 11.1021 0.784415
52 1 7.04862 10.9929 3.89949
36 1 3.85227 9.97927 4.85193
3 1 6.12676 10.7541 6.48165
55 1 6.78944 8.51589 7.02931
21 1 6.71228 8.36042 10.1133
32 1 8.68763 0.0178224 2.07747
13 1 8.20361 2.45356 4.98976
25 1 10.3503 0.543018 4.42383
58 1 9.99869 0.229572 7.58966
7 1 8.68371 2.32677 8.13338
16 1 9.74842 2.02908 10.5114
34 1 8.80292 4.36538 0.481361
49 1 9.78484 3.3117 3.05962
41 1 10.7262 5.10571 5.69472
39 1 10.2593 4.94495 8.22915
5 1 10.1101 5.74021 2.26087
33 1 9.29492 6.52814 4.62696
63 1 9.09576 7.62021 7.67788
35 1 8.80751 6.65581 10.0109
44 1 9.67165 8.67236 0.0764438
26 1 10.884 11.104 0.555274
56 1 9.30559 8.82603 2.47789
50 1 9.07176 10.122 5.87884
29 1 8.75751 9.91354 9.47276
ITEM: TIMESTEP
14000
ITEM: NUMBER OF ATOMS
64
ITEM: BOX BOUNDS pp pp pp
0.0000000000000000e+00 1.1160000000000000e+01
0.0000000000000000e+00 1.1160000000000000e+01
0.0000000000000000e+00 1.1160000000000000e+01
ITEM: ATOMS id type x y z
15 1 2.20987 0.143099 2.05453
47 1 1.30001 1.42105 4.53441
23 1 2.24994 0.25167 7.81115
51 1 1.40843 2.51743 10.7012
26 1 0.224755 0.268009 10.8778
40 1 1.22615 2.9476 1.89056
38 1 2.09072 4.86035 3.72044
19 1 3.3864 5.22797 6.99963
28 1 2.2467 2.97044 6.43727
37 1 1.11009 5.45742 9.13857
27 1 1.21565 8.24951 -0.0704889
59 1 1.33796 5.73163 0.365959
18 1 2.78162 8.21519 2.52537
62 1 2.99427 7.27787 5.06396
24 1 0.247126 7.38345 5.33663
6 1 0.170329 6.08271 2.99575
64 1 3.53083 7.91919 9.00561
9 1 3.695 9.37107 -0.139313
45 1 1.89292 10.2142 5.55641
12 1 0.598244 10.0492 3.27023
11 1 0.838569 9.56002 8.64642
8 1 4.71435 2.55647 0.153322
54 1 6.84022 2.40938 2.68263
1 1 4.1826 0.752346 3.48295
13 1 6.54068 1.11677 5.7608
57 1 3.79377 2.68229 8.97162
46 1 7.13841 1.4977 8.15736
17 1 6.95617 4.75007 2.21129
43 1 3.8291 4.6405 0.738377
14 1 5.51697 5.55984 5.8276
42 1 4.94084 2.94201 4.33204
2 1 6.32162 4.60159 10.645
60 1 6.47095 7.87735 1.80935
30 1 4.5885 6.38952 2.55363
48 1 6.48562 7.95104 4.43407
61 1 6.9318 7.34178 8.06184
4 1 5.25389 6.86072 10.7034
22 1 5.52512 10.6858 1.53685
36 1 4.78313 9.71189 4.12558
3 1 6.83135 9.84662 6.61965
55 1 4.8403 8.6865 6.93555
21 1 6.85943 9.85298 10.5345
53 1 5.14071 10.8186 8.62497
10 1 7.97943 1.52497 0.295369
25 1 9.8886 1.41124 4.14327
58 1 10.2604 0.304082 6.7978
20 1 10.1346 3.32158 1.84223
49 1 7.83363 3.4508 5.62259
5 1 8.95193 5.09184 3.57276
41 1 11.2827 4.92983 5.76281
31 1 7.94122 4.76272 8.38158
7 1 9.8487 2.87925 6.79894
34 1 9.00825 4.14208 10.9705
16 1 10.6429 3.31172 9.24251
56 1 9.5703 7.91124 3.0675
33 1 8.54713 6.93012 5.90251
39 1 10.1129 6.34252 7.78793
35 1 8.05689 7.02714 10.6693
44 1 10.0009 8.90733 0.366468
32 1 9.47747 10.9065 1.91394
52 1 7.56931 10.4546 3.57458
50 1 9.93593 9.2166 5.61383
29 1 9.09599 11.2118 9.09014
63 1 9.73977 8.5911 8.91906
ITEM: TIMESTEP
14500
ITEM: NUMBER OF ATOMS
64
ITEM: BOX BOUNDS pp pp pp
0.0000000000000000e+00 1.1160000000000000e+01
0.0000000000000000e+00 1.1160000000000000e+01
0.0000000000000000e+00 1.1160000000000000e+01
ITEM: ATOMS id type x y z
1 1 2.81924 1.28889 2.13543
41 1 1.14695 1.51027 6.09044
23 1 1.8119 1.7453 8.75393
15 1 2.52905 0.0119271 10.2558
40 1 1.74411 3.43175 1.48676
59 1 0.174913 5.66932 0.341113
38 1 1.90722 5.02839 4.48984
51 1 1.94963 3.96587 8.16631
43 1 3.27557 5.61814 1.24398
18 1 2.37957 8.03247 2.7076
24 1 1.85094 7.04679 5.14251
64 1 3.67799 7.0284 8.39192
37 1 1.23833 6.59632 7.70697
27 1 0.80451 7.9523 10.6009
12 1 0.127871 9.87827 2.22921
9 1 3.36691 8.98787 0.175863
47 1 1.56386 11.0282 3.72124
45 1 2.15141 10.1753 6.49071
11 1 1.17543 8.98145 8.5532
8 1 4.52856 2.24343 0.890543
54 1 7.31346 1.10821 2.34117
13 1 5.28705 1.00856 4.22596
28 1 4.40491 1.48219 7.28071
49 1 6.79884 2.35377 6.4429
46 1 6.93735 2.874 8.9013
53 1 5.1641 0.841015 10.0899
2 1 5.82924 4.6546 0.500547
42 1 4.15034 3.30915 4.23849
5 1 7.00652 4.86791 5.4934
17 1 6.32656 4.11404 3.20435
19 1 3.84771 4.91043 6.82988
14 1 5.75312 5.20071 8.21774
57 1 3.99501 3.52965 9.74114
60 1 6.50453 7.93888 2.10668
62 1 4.37929 7.73176 5.6925
48 1 7.5109 8.13512 4.59296
30 1 4.77878 6.47811 3.22416
61 1 6.81356 8.14696 8.16671
4 1 4.98562 6.92358 10.5389
22 1 5.28371 10.6105 1.48121
36 1 3.90505 9.7466 4.08876
55 1 4.81789 10.094 7.60711
3 1 6.64676 10.2658 5.95075
21 1 6.50477 9.46341 10.392
10 1 8.49321 1.94791 -0.0400903
32 1 10.4942 0.26378 0.371091
25 1 9.12402 2.12908 4.56455
7 1 10.0404 2.38836 7.07567
26 1 10.2299 1.31006 9.01046
34 1 9.10722 4.26427 1.24605
20 1 11.013 3.5732 3.17803
39 1 10.3084 5.26263 7.10296
31 1 8.48078 4.97806 8.49592
16 1 10.9811 3.83872 9.83858
56 1 8.77428 7.63716 1.57676
50 1 10.6377 8.06708 4.70165
6 1 10.754 6.42191 2.80818
33 1 9.23276 7.38303 6.79734
35 1 8.56795 6.22725 10.8094
52 1 9.22261 10.4197 4.552
58 1 10.5535 10.7656 6.59051
63 1 9.45256 9.2063 8.31375
29 1 7.93063 11.1088 8.60694
44 1 9.71278 9.07736 10.5967
ITEM: TIMESTEP
15000
ITEM: NUMBER OF ATOMS
64
ITEM: BOX BOUNDS pp pp pp
0.0000000000000000e+00 1.1160000000000000e+01
0.0000000000000000e+00 1.1160000000000000e+01
0.0000000000000000e+00 1.1160000000000000e+01
ITEM: ATOMS id type x y z
1 1 2.26124 1.77528 1.64308
41 1 2.69305 1.85819 4.38948
28 1 3.30439 2.45739 6.52474
23 1 0.183385 1.374 7.58777
15 1 1.98664 0.444005 10.2059
40 1 1.9166 4.05559 1.50531
43 1 3.85804 5.63602 2.14513
38 1 1.71038 4.89367 5.26735
20 1 -0.0238731 4.97135 3.11958
51 1 1.79454 3.98784 8.34629
57 1 3.76636 2.80088 10.5407
18 1 2.22123 7.58399 2.47394
37 1 1.25199 6.97784 6.4494
24 1 3.60307 8.27838 5.76592
64 1 2.40893 7.04151 9.1603
59 1 0.844802 5.86095 11.0709
9 1 1.68528 9.08024 0.0916276
47 1 1.58832 10.7052 3.37313
50 1 0.446152 8.26204 4.45346
45 1 2.9868 9.78708 7.80942
11 1 0.183836 9.84145 7.79832
58 1 -0.000949969 10.564 5.57143
8 1 4.67278 1.00084 2.0431
42 1 5.18111 1.99258 4.36722
53 1 3.84228 1.05865 8.65243
46 1 7.27467 2.00408 10.219
2 1 5.66605 3.87285 1.39739
17 1 6.17279 4.20813 3.92329
19 1 4.82488 4.77333 6.08108
49 1 6.37613 3.0866 7.76165
14 1 4.40589 4.95266 9.58089
4 1 5.47022 6.77047 0.482294
60 1 6.98442 7.41095 2.51326
30 1 5.31321 6.67918 4.1904
62 1 6.54602 6.24767 7.67069
55 1 4.91975 8.39468 8.86023
22 1 4.23266 8.7323 0.999784
36 1 3.99193 10.0691 3.28833
13 1 6.20806 10.877 4.97404
3 1 6.20414 8.67231 5.95445
29 1 6.28672 11.1122 8.05387
21 1 6.44099 9.76242 10.7173
25 1 10.5002 2.07628 3.1434
54 1 7.6132 1.081 2.99521
26 1 8.60845 1.30378 8.05282
32 1 11.0335 1.42637 10.9261
34 1 8.32867 5.06961 2.18948
10 1 8.92504 2.92763 1.14194
7 1 8.32083 3.56826 5.20839
39 1 10.6465 3.49867 5.36952
5 1 10.352 4.89897 7.99367
31 1 8.13252 4.56535 9.50956
16 1 10.8504 3.68718 10.0019
6 1 10.9698 7.2029 1.71712
48 1 8.72991 7.94271 4.8564
33 1 9.61748 7.07555 7.12842
27 1 10.261 8.12964 9.40647
61 1 7.61052 8.23904 9.14272
35 1 8.91457 6.59197 10.6266
12 1 11.1271 10.625 1.47715
56 1 8.05257 8.93749 1.08643
52 1 9.26292 10.1919 3.06225
63 1 8.53438 10.1037 6.21674
44 1 9.04353 10.3822 10.0039
ITEM: TIMESTEP
15500
ITEM: NUMBER OF ATOMS
64
ITEM: BOX BOUNDS pp pp pp
0.0000000000000000e+00 1.1160000000000000e+01
0.0000000000000000e+00 1.1160000000000000e+01
0.0000000000000000e+00 1.1160000000000000e+01
ITEM: ATOMS id type x y z
1 1 1.32054 1.07777 1.65511
41 1 2.93249 1.57733 4.52414
53 1 2.96376 2.40635 7.66508
32 1 0.848086 2.42575 10.8693
23 1 0.878921 1.11023 8.64981
57 1 3.62323 1.84795 10.382
59 1 1.10493 5.13024 0.810208
40 1 2.31062 3.69256 3.0619
28 1 2.42381 4.2476 5.92252
39 1 0.251636 3.67204 6.874
50 1 0.696954 7.95899 4.48867
18 1 2.68041 6.65427 3.91252
37 1 1.27775 8.26596 7.00904
9 1 1.58162 7.58348 11.1359
51 1 1.16898 5.86133 9.03436
21 1 3.47618 10.4197 0.194162
12 1 0.0987791 10.5769 0.249587
11 1 0.939966 11.0233 5.92404
45 1 3.54627 10.9482 6.7307
15 1 1.80359 9.9109 9.4067
2 1 5.6602 2.37677 1.67125
8 1 7.41632 0.742619 3.12889
17 1 5.45145 2.66423 4.27097
49 1 5.60073 2.07207 7.58324
46 1 6.3887 1.65013 10.0905
43 1 3.74686 4.60356 0.711914
30 1 5.15173 4.98169 3.10621
19 1 5.02146 5.16422 6.27808
14 1 3.79241 4.84091 9.09628
31 1 6.28893 4.28251 10.8321
62 1 6.94638 5.40096 8.50155
22 1 3.83937 8.12907 1.91381
35 1 7.09874 6.35542 0.191771
3 1 7.00185 6.69079 5.33821
24 1 3.75517 8.35397 5.21593
61 1 6.25119 8.30227 7.35139
64 1 3.85643 7.44859 7.89443
4 1 4.43028 7.10646 10.6205
36 1 6.54951 8.58554 3.82301
47 1 4.73958 10.9556 3.13169
42 1 6.13003 10.8324 5.71568
55 1 4.33756 9.95532 9.11299
56 1 6.78775 10.2164 11.0333
10 1 8.1745 2.03433 0.998979
54 1 8.97766 2.07887 5.24179
58 1 11.0147 0.961291 3.86122
26 1 9.48007 1.5754 8.13015
44 1 9.06453 0.22483 10.3246
34 1 7.84479 5.35473 2.26288
38 1 10.9664 4.90397 4.44199
25 1 9.64146 3.50765 2.79365
7 1 7.55189 3.95964 6.191
16 1 9.91639 4.76133 11.0743
5 1 10.0998 5.06876 8.63663
20 1 9.79299 6.89402 2.14327
48 1 9.46785 6.78205 5.45735
33 1 10.081 7.28873 7.75543
27 1 8.46887 8.20705 9.53918
6 1 10.2042 8.1975 11.0082
60 1 8.01222 8.91675 1.56815
52 1 10.2012 9.66508 2.84896
13 1 8.8649 9.88691 4.96816
63 1 9.63561 10.2504 7.22186
29 1 7.48784 10.8183 7.8588
ITEM: TIMESTEP
16000
ITEM: NUMBER OF ATOMS
64
ITEM: BOX BOUNDS pp pp pp
0.0000000000000000e+00 1.1160000000000000e+01
0.0000000000000000e+00 1.1160000000000000e+01
0.0000000000000000e+00 1.1160000000000000e+01
ITEM: ATOMS id type x y z
1 1 -0.0974114 1.83823 1.81841
2 1 2.63982 2.52589 1.69948
11 1 1.4853 0.0079396 7.42674
53 1 3.26458 2.91741 7.15831
23 1 0.355902 2.12062 9.09702
21 1 2.21752 0.0668311 10.8413
43 1 3.59053 4.7705 1.64049
59 1 1.49333 5.20627 2.97438
40 1 1.74372 3.0614 3.90737
39 1 -0.181921 5.19818 6.85823
32 1 0.565941 3.64277 11.0958
57 1 3.17685 3.28686 10.1348
14 1 3.28513 5.57427 8.16156
9 1 1.04824 7.60001 -0.121195
18 1 2.95674 8.01365 3.77952
20 1 0.369944 7.7863 2.79686
28 1 2.40616 5.71329 5.31743
37 1 1.92932 8.2234 6.1235
51 1 0.98571 6.83641 8.47564
22 1 3.2016 9.30843 1.80158
52 1 1.1593 10.7107 2.3931
50 1 2.21904 10.9014 5.07705
15 1 1.95166 9.50316 9.30658
41 1 4.84111 0.0561807 4.33389
49 1 5.34874 1.03335 7.92117
17 1 8.0433 1.18736 5.72453
46 1 4.61975 0.402191 10.6518
34 1 6.34536 4.41259 1.85284
19 1 5.7133 4.26915 5.36633
7 1 7.5603 5.65335 3.91377
30 1 4.81086 2.77667 3.57013
62 1 6.78593 2.96231 7.09875
31 1 5.70717 2.68113 10.2241
35 1 6.23232 6.68571 0.386646
24 1 5.19356 8.0268 4.05172
64 1 4.83339 6.11322 6.13983
4 1 3.97497 6.52653 10.5229
27 1 6.78826 5.37718 9.38403
47 1 5.21839 10.7542 1.747
36 1 6.79554 8.96908 2.21449
42 1 7.11724 9.05275 6.57415
45 1 4.81472 9.92464 6.60201
55 1 4.10109 8.39194 8.80905
56 1 5.89609 9.74 9.86171
58 1 10.4181 1.35094 4.66222
8 1 7.27158 1.61879 2.9513
54 1 9.84579 2.39556 6.97935
29 1 7.76417 -0.321537 8.63731
44 1 10.4822 0.368619 10.4187
10 1 8.27181 1.46817 10.7306
25 1 9.17394 3.54825 1.9022
38 1 10.0646 3.88622 4.38168
26 1 8.34802 3.43519 9.27584
5 1 10.1021 5.53087 10.0307
16 1 8.9333 6.18026 1.09885
3 1 8.87856 7.71448 3.54349
48 1 10.6797 6.82914 5.28613
61 1 7.59756 6.48872 6.59005
33 1 8.49879 7.16974 9.07601
12 1 10.1535 9.01502 0.940768
60 1 9.34878 10.7082 3.55395
63 1 10.2857 10.5232 8.08007
13 1 9.53171 9.32295 5.79924
6 1 7.80168 8.91696 10.7868
ITEM: TIMESTEP
16500
ITEM: NUMBER OF ATOMS
64
ITEM: BOX BOUNDS pp pp pp
0.0000000000000000e+00 1.1160000000000000e+01
0.0000000000000000e+00 1.1160000000000000e+01
0.0000000000000000e+00 1.1160000000000000e+01
ITEM: ATOMS id type x y z
52 1 3.19324 0.207841 1.70294
30 1 2.62786 2.26855 4.46704
11 1 2.25644 1.17786 8.05353
32 1 1.11081 3.99383 1.12559
59 1 0.831564 5.08249 4.19408
40 1 0.866183 3.6128 6.28712
57 1 3.49796 5.05358 10.887
23 1 0.672182 3.04935 8.97358
5 1 0.0840372 5.05951 10.1243
14 1 2.16065 5.30359 8.53308
18 1 2.79786 8.13845 2.63582
22 1 3.64206 8.00072 0.0155044
43 1 2.92864 5.68642 1.99462
28 1 2.08831 7.49997 5.23807
64 1 3.66294 5.85336 6.01138
9 1 0.974764 7.73874 11.1228
15 1 1.66181 8.28711 8.50565
20 1 0.373132 8.66044 2.55125
50 1 0.863401 10.9136 3.96079
37 1 2.26458 10.386 6.47685
21 1 2.95293 10.6125 9.96503
8 1 7.00115 1.34947 1.62656
31 1 4.68582 2.22841 0.669033
49 1 6.18034 1.00924 7.38849
53 1 4.07713 2.59155 7.16457
46 1 5.4819 0.166583 9.9034
34 1 7.08997 4.18248 2.56877
19 1 5.79461 4.14822 5.01025
2 1 4.47009 3.50154 3.11623
61 1 6.41357 5.34867 7.24351
27 1 5.03011 3.55915 9.41773
35 1 7.14165 5.98727 0.975424
24 1 4.9198 7.20586 4.08119
7 1 7.15528 6.15973 4.48725
55 1 3.93471 7.57891 7.53791
4 1 5.78032 6.66532 10.0062
47 1 5.05601 10.3451 2.81248
36 1 6.60862 8.68737 1.97237
41 1 4.19499 11.0567 5.30483
45 1 5.92887 8.90248 5.94537
56 1 5.9534 8.83028 9.09313
1 1 10.5426 1.76536 1.88619
58 1 11.0459 1.82966 4.41814
17 1 8.85229 0.193423 5.22884
62 1 7.55982 2.49406 5.7321
13 1 10.6198 0.358505 6.96361
44 1 11.0962 0.343466 10.3117
10 1 8.07847 0.909165 10.4066
25 1 8.87862 3.4175 1.29764
38 1 9.61412 4.93112 3.79592
39 1 8.82884 4.90576 6.3046
54 1 9.26739 2.91015 7.8266
26 1 7.79745 3.58639 9.63061
16 1 9.56095 6.96795 1.95906
51 1 10.9363 6.46382 7.10565
42 1 7.72947 7.87238 7.04243
33 1 8.4501 6.22025 9.58758
63 1 9.84848 8.33005 8.7121
6 1 8.12113 9.27771 -0.000736143
60 1 8.76361 10.9186 2.4309
3 1 8.30413 8.63791 3.89885
48 1 10.8553 8.46433 5.34047
29 1 8.47971 10.6539 8.09866
12 1 10.6397 9.57752 11.1518
ITEM: TIMESTEP
17000
ITEM: NUMBER OF ATOMS
64
ITEM: BOX BOUNDS pp pp pp
0.0000000000000000e+00 1.1160000000000000e+01
0.0000000000000000e+00 1.1160000000000000e+01
0.0000000000000000e+00 1.1160000000000000e+01
ITEM: ATOMS id type x y z
52 1 1.13519 1.08001 0.980829
30 1 1.91138 1.69602 3.61626
11 1 0.308003 1.42599 6.97814
27 1 3.33957 1.28362 8.13763
21 1 3.17182 0.0623648 10.739
23 1 0.139649 0.838061 9.74082
2 1 3.55172 3.38222 2.66101
16 1 0.985915 5.16317 0.93564
40 1 1.94084 3.3651 5.85825
5 1 0.161807 4.63539 8.84262
32 1 1.84695 3.29586 10.0213
9 1 1.09298 7.48994 0.253604
64 1 2.85981 5.73929 4.05933
59 1 0.717103 6.04336 3.39234
51 1 1.22056 6.22418 6.9288
14 1 2.20106 7.01596 8.92562
18 1 3.06467 8.56715 1.15608
50 1 1.46361 10.1446 2.25271
28 1 1.75914 8.21437 5.31219
13 1 0.615432 10.1192 6.77666
15 1 1.60739 9.26968 8.78386