ITEM: TIMESTEP
10000
ITEM: NUMBER OF ATOMS
64
ITEM: BOX BOUNDS pp pp pp
0.0000000000000000e+00 1.1100000000000000e+01
0.0000000000000000e+00 1.1100000000000000e+01
0.0000000000000000e+00 1.1100000000000000e+01
ITEM: ATOMS id type x y z
12 1 3.14711 1.93995 0.161461
26 1 1.5241 1.89192 3.67603
46 1 1.71717 1.74382 6.29767
56 1 3.29376 0.353534 7.2397
6 1 1.47346 4.9504 0.718592
44 1 0.0808021 3.31366 2.57119
21 1 3.6626 4.35749 2.81862
54 1 3.5731 3.80386 5.26009
25 1 1.19284 4.22841 7.70569
45 1 3.65616 5.21035 8.48237
2 1 0.963284 3.68988 10.1203
57 1 2.75761 8.21312 1.4964
16 1 1.91679 6.36727 3.45955
34 1 0.500498 6.72613 5.6318
55 1 3.34761 6.3808 5.86207
42 1 3.02359 7.98418 10.1418
9 1 1.25681 7.46331 8.91337
1 1 2.11289 10.307 0.166503
32 1 0.377264 10.9525 1.89347
4 1 1.79162 9.51544 3.8805
10 1 2.07648 8.81287 6.20468
38 1 1.02235 9.89394 8.44148
47 1 3.73645 0.46994 3.60965
17 1 5.98283 0.603318 4.1159
13 1 4.93526 2.04391 6.06263
27 1 6.22003 2.10542 8.08162
50 1 3.93864 2.76012 8.7413
30 1 5.95543 0.812243 10.1617
7 1 5.08077 3.02269 0.426418
5 1 3.91954 5.19108 0.0857879
58 1 5.64527 5.48061 4.70493
3 1 6.91951 3.96583 9.91211
39 1 4.9453 6.9003 1.33196
49 1 4.34619 8.15582 4.32239
22 1 6.74348 7.1877 3.4811
59 1 7.2236 5.59619 6.45799
52 1 6.30937 5.83387 8.68507
64 1 5.7978 7.65575 9.79088
24 1 4.76377 10.4723 1.46981
63 1 7.1638 11.0918 1.61554
40 1 6.27836 9.63202 5.1939
37 1 5.00771 8.75374 7.07926
18 1 4.70267 9.81878 9.37199
48 1 9.53942 1.32836 0.76679
36 1 8.49582 1.34901 3.49885
41 1 8.69313 1.63029 6.28636
15 1 10.7103 1.81509 7.79893
33 1 8.94157 4.07195 0.875434
28 1 9.59619 5.47183 3.40212
61 1 7.64989 3.91815 3.73276
31 1 10.2257 4.90757 6.78899
29 1 9.48407 3.35603 9.09163
35 1 7.5293 6.76578 0.785927
51 1 10.74 7.06634 1.22435
60 1 9.2934 7.73417 4.42432
23 1 8.59958 7.49468 8.21251
43 1 10.596 5.95187 8.73862
53 1 9.6343 9.41977 2.17755
14 1 10.2089 10.699 4.4751
8 1 7.99728 10.7583 7.80407
11 1 9.59613 9.18621 6.82477
20 1 7.53755 9.20217 10.8714
19 1 9.97396 8.62668 10.6771
62 1 10.0738 10.9936 9.79719
ITEM: TIMESTEP
10500
ITEM: NUMBER OF ATOMS
64
ITEM: BOX BOUNDS pp pp pp
0.0000000000000000e+00 1.1100000000000000e+01
0.0000000000000000e+00 1.1100000000000000e+01
0.0000000000000000e+00 1.1100000000000000e+01
ITEM: ATOMS id type x y z
32 1 0.0660867 0.756227 0.535216
47 1 2.36824 0.977998 2.62532
50 1 2.42839 2.51651 8.11566
46 1 1.8827 2.21728 5.91405
1 1 2.73012 0.822358 10.2369
44 1 0.239658 3.71451 2.07599
12 1 2.56963 3.70824 0.347828
31 1 -0.0295618 4.34698 6.07804
25 1 0.460392 3.52168 8.64708
57 1 2.39786 7.68535 0.33384
6 1 1.78086 5.73566 2.0678
34 1 1.80723 5.8141 4.56602
54 1 3.22688 5.54372 6.87972
42 1 2.42551 6.77793 9.16429
43 1 0.452255 5.95073 9.55018
24 1 3.38761 9.38435 1.993
4 1 0.54549 8.94509 2.90966
13 1 3.21033 10.7249 4.55696
10 1 1.07037 8.94855 5.62365
38 1 2.22346 10.9082 7.1035
19 1 0.654492 9.68472 10.0732
7 1 4.45272 2.09082 2.54145
17 1 5.78468 0.397778 3.80163
21 1 4.06326 2.65101 4.97105
56 1 5.43785 0.390792 7.38659
27 1 5.91695 2.71405 8.54434
30 1 5.37712 1.67901 11.1649
5 1 5.49777 4.60275 1.73342
58 1 6.29539 4.83972 4.74852
3 1 5.92122 4.56418 10.4484
45 1 3.75551 4.55246 9.47673
39 1 5.10103 7.42329 0.897081
16 1 3.98989 5.86221 3.35366
22 1 7.19636 7.96618 3.65215
49 1 4.85066 8.24819 4.1882
55 1 5.6158 6.46516 6.63384
52 1 6.20984 7.05599 8.87599
64 1 7.15266 8.59435 -0.0377776
37 1 3.78949 8.5274 6.37218
40 1 6.73687 9.8381 6.08074
18 1 4.71352 9.48747 9.30789
48 1 7.90361 1.54693 1.08303
26 1 10.7442 2.27507 3.7507
41 1 9.17732 1.6411 6.06277
15 1 10.6487 0.942274 7.94483
62 1 7.92455 0.433494 8.85845
2 1 9.93432 2.43232 10.3898
33 1 8.76253 4.25924 0.493557
36 1 8.27522 2.92217 3.23314
59 1 8.54735 3.97508 6.01029
29 1 8.28822 3.54889 8.58908
51 1 10.7754 6.95938 1.2476
61 1 7.70869 5.63729 2.83383
60 1 9.12512 7.1954 4.99255
28 1 10.0071 5.81318 3.46656
9 1 10.7175 6.86955 7.00887
23 1 8.75401 6.22304 8.13033
35 1 9.13254 6.66722 10.6802
53 1 9.8929 10.7265 2.79515
63 1 7.54863 10.1005 2.52644
14 1 9.19271 9.76834 5.19848
11 1 10.9697 9.80945 7.40725
8 1 8.47171 8.61163 7.94622
20 1 8.94151 10.206 11.012
ITEM: TIMESTEP
11000
ITEM: NUMBER OF ATOMS
64
ITEM: BOX BOUNDS pp pp pp
0.0000000000000000e+00 1.1100000000000000e+01
0.0000000000000000e+00 1.1100000000000000e+01
0.0000000000000000e+00 1.1100000000000000e+01
ITEM: ATOMS id type x y z
47 1 2.1521 0.726499 1.50242
26 1 0.0956443 1.3182 3.7554
46 1 2.77753 2.66581 5.4311
31 1 0.795054 2.28343 6.72532
1 1 3.48267 3.2291 10.3873
50 1 1.11852 1.24679 9.04737
12 1 1.85607 5.08785 1.00043
44 1 0.97365 3.70965 2.84262
45 1 2.52016 4.83176 8.98524
51 1 1.01412 7.97251 1.47246
6 1 3.81357 6.48653 1.23556
34 1 1.15156 6.51487 3.53188
10 1 1.87908 5.34171 6.69999
37 1 2.06303 7.79477 6.896
42 1 3.52164 7.21153 9.96253
32 1 0.479265 10.4051 -0.128815
4 1 0.908226 9.08756 3.85357
24 1 3.16069 9.82823 2.71512
38 1 1.40095 11.042 5.77735
19 1 1.65842 8.66824 9.10237
7 1 3.35065 2.8339 2.97923
17 1 6.97727 1.44907 4.41369
13 1 3.45694 0.481159 4.76218
21 1 5.42856 2.12922 6.33497
56 1 4.9203 -0.0681649 7.40658
30 1 5.85798 1.8564 10.2694
18 1 3.55665 0.379362 10.6812
5 1 5.5697 3.07772 1.52106
16 1 5.11294 5.07445 3.47628
54 1 3.86655 4.87588 5.63567
58 1 7.60125 4.5426 5.75072
27 1 4.78737 4.76585 7.79775
3 1 5.34268 5.1796 10.8843
49 1 3.2627 8.11392 4.54292
22 1 5.93471 8.15192 3.28321
55 1 4.94106 7.19691 6.50588
52 1 6.07983 7.09973 8.48837
57 1 4.69079 9.02806 0.227101
63 1 6.85231 11.4054 2.15756
39 1 7.08452 9.091 1.06961
40 1 6.27779 9.91968 4.74055
64 1 6.52148 10.3493 9.63372
2 1 10.1576 2.11425 1.29733
48 1 8.17818 1.1572 0.0272447
62 1 7.72657 1.46458 7.79042
41 1 9.19123 0.399101 5.4263
36 1 7.91164 3.07968 2.47548
59 1 9.6656 3.24204 5.01943
9 1 10.3733 4.72848 7.89556
25 1 10.1194 2.10165 9.57486
43 1 10.8828 4.8861 10.6096
29 1 7.31519 3.88415 8.71881
33 1 9.55683 6.85953 1.30808
28 1 9.87388 5.81452 4.65843
61 1 7.47952 5.82318 3.53803
60 1 8.32297 6.67566 7.49778
11 1 10.3404 7.67536 6.14503
23 1 8.54346 6.14896 10.1864
53 1 9.5141 10.2336 2.5204
14 1 8.54115 8.44175 4.14816
15 1 10.3022 11.1057 7.52801
8 1 7.40124 9.22223 7.0586
20 1 9.19779 9.93899 9.81605
35 1 10.3089 7.81811 8.60282
ITEM: TIMESTEP
11500
ITEM: NUMBER OF ATOMS
64
ITEM: BOX BOUNDS pp pp pp
0.0000000000000000e+00 1.1100000000000000e+01
0.0000000000000000e+00 1.1100000000000000e+01
0.0000000000000000e+00 1.1100000000000000e+01
ITEM: ATOMS id type x y z
47 1 0.777512 1.04639 2.46856
18 1 2.31087 2.5792 0.681022
7 1 3.24328 1.17 3.16734
31 1 3.67764 2.61724 6.4847
50 1 2.46126 2.15602 8.6849
12 1 2.97322 5.51574 0.920702
2 1 -0.156588 3.57373 1.51258
44 1 2.12629 2.93356 4.37306
10 1 1.64647 4.75671 7.50264
43 1 1.15488 4.54538 9.72545
51 1 2.23654 8.01834 0.78844
34 1 1.94935 5.32894 4.73679
49 1 3.68458 7.58712 5.33677
37 1 0.103982 6.86706 6.00791
42 1 2.07603 7.93551 9.49448
45 1 3.53782 6.19294 8.40932
24 1 1.92686 10.3573 1.22425
4 1 0.0455924 8.63591 3.71374
13 1 2.83758 9.34723 4.03268
19 1 1.03766 9.90241 8.42777
56 1 2.76378 10.9953 6.7826
5 1 5.1211 2.66331 1.69108
17 1 7.14036 2.70125 3.13343
41 1 7.43889 0.621454 5.59233
30 1 5.46465 0.738148 7.19365
48 1 6.27377 2.25481 10.5114
57 1 3.80605 0.41607 10.6482
3 1 6.83704 4.55936 1.00861
16 1 4.0372 4.55218 2.94381
46 1 5.58755 3.22343 4.98181
54 1 5.5047 5.39885 6.82057
27 1 6.00061 3.13727 8.33893
1 1 4.62074 3.97889 10.1874
6 1 6.13205 6.75837 0.27591
22 1 4.69199 7.96843 2.08601
14 1 5.75758 6.8337 4.0584
52 1 5.32639 7.90995 9.28253
63 1 6.16609 9.7919 1.1346
40 1 5.35343 10.7835 4.22299
55 1 4.75339 9.35548 7.01531
8 1 7.12006 8.42219 6.65211
64 1 6.47712 10.7582 9.87868
53 1 7.59878 -0.0642354 2.77017
26 1 9.82477 -0.387538 4.52764
36 1 9.91232 2.22034 3.73233
38 1 10.488 1.22912 7.17896
25 1 10.7645 1.15189 10.0996
62 1 8.05787 1.03911 8.71926
28 1 10.4049 5.27432 3.35164
59 1 10.2947 3.57687 5.76599
58 1 9.09479 5.72922 6.53381
21 1 7.97767 2.90965 6.33102
29 1 7.88674 4.47536 9.72296
9 1 10.149 3.8865 8.85348
33 1 10.3634 8.22105 1.36563
23 1 10.0405 5.47971 0.0871022
61 1 7.88687 5.41753 3.32999
11 1 8.53434 8.21218 4.1399
35 1 10.9026 7.08516 9.10971
60 1 7.70821 6.55407 8.83722
32 1 10.0502 10.5814 0.967971
39 1 8.20264 8.05875 0.455567
15 1 9.55447 9.84604 6.89748
20 1 8.5773 8.71475 9.18911
ITEM: TIMESTEP
12000
ITEM: NUMBER OF ATOMS
64
ITEM: BOX BOUNDS pp pp pp
0.0000000000000000e+00 1.1100000000000000e+01
0.0000000000000000e+00 1.1100000000000000e+01
0.0000000000000000e+00 1.1100000000000000e+01
ITEM: ATOMS id type x y z
47 1 1.28872 1.04363 2.17573
5 1 3.40085 1.20521 2.40604
44 1 1.80539 2.21358 5.39599
56 1 0.97118 0.0659409 4.93554
38 1 0.17117 1.83845 7.11937
57 1 3.02388 1.29841 8.50858
32 1 0.134632 0.522997 9.73576
18 1 2.38191 3.97821 1.73013
34 1 1.99912 4.80636 5.70279
50 1 1.56649 3.33699 8.60614
25 1 0.753916 3.09882 11.0359
12 1 3.70232 5.22198 10.9031
35 1 -0.0521796 6.42745 0.607098
13 1 2.59586 7.49837 5.27472
43 1 2.28468 6.59944 2.95665
37 1 0.0415552 7.44774 6.00962
51 1 2.55655 8.23009 9.95546
10 1 1.32498 6.31516 8.92144
22 1 2.68246 8.41934 1.92475
33 1 0.385279 8.9996 0.0482814
7 1 2.78129 9.78815 3.69307
42 1 3.31489 9.69601 7.02667
24 1 2.66564 10.6639 10.4215
48 1 4.98651 1.84735 0.310059
17 1 6.38765 1.13815 3.9651
30 1 4.01253 1.02229 6.38083
27 1 6.24408 0.729131 8.94634
3 1 6.20413 3.09645 2.34489
16 1 4.01983 4.55648 3.86198
46 1 6.37257 4.68392 4.96884
31 1 4.69325 3.64693 6.56557
21 1 7.33253 3.84898 6.95751
1 1 5.7433 3.40208 9.53336
6 1 5.89801 6.06702 0.333416
14 1 5.23786 7.59245 2.02304
49 1 5.26597 7.15881 4.99114
45 1 3.5786 6.30809 7.22325
60 1 5.81588 5.82337 8.73401
63 1 6.59078 9.51309 1.82435
40 1 5.2555 9.7791 4.25207
55 1 5.40184 8.57522 8.13416
8 1 6.44179 10.5112 6.74665
52 1 4.93006 9.32564 10.5001
53 1 9.68812 0.508327 0.54469
36 1 8.93527 1.67573 4.54583
41 1 8.97343 2.12599 7.30128
29 1 7.96569 2.52288 11.0769
2 1 10.0996 3.09374 1.95705
59 1 10.6477 4.47762 5.05622
61 1 7.70031 5.5663 2.90737
9 1 9.79488 3.64528 9.06809
23 1 8.6275 5.10866 10.7273
39 1 8.88907 8.23454 1.60697
28 1 10.0041 5.67748 2.41946
4 1 10.8817 7.29853 3.58721
11 1 7.99984 8.00345 4.05404
58 1 9.28429 5.83578 6.56323
54 1 7.47958 8.07921 6.53412
20 1 8.03238 7.44028 9.53588
19 1 10.6844 7.79728 8.6295
26 1 9.15606 10.6295 2.86048
15 1 9.11133 9.75949 5.57168
62 1 10.1765 10.2019 7.98975
64 1 7.775 10.1764 10.072
ITEM: TIMESTEP
12500
ITEM: NUMBER OF ATOMS
64
ITEM: BOX BOUNDS pp pp pp
0.0000000000000000e+00 1.1100000000000000e+01
0.0000000000000000e+00 1.1100000000000000e+01
0.0000000000000000e+00 1.1100000000000000e+01
ITEM: ATOMS id type x y z
5 1 3.22367 0.79296 2.35106
24 1 1.48767 1.38036 0.241272
38 1 0.640094 1.47449 5.55122
42 1 2.66959 0.567524 6.3229
57 1 3.60755 1.79032 8.5054
18 1 3.39337 4.99464 1.73118
35 1 0.450056 5.69021 0.685179
25 1 0.405586 3.05042 1.6089
44 1 1.6943 3.30979 3.69235
43 1 -0.210297 4.88355 4.33978
34 1 1.6088 3.81716 7.17002
50 1 1.75115 3.56024 9.81612
22 1 2.89537 7.06101 2.16502
14 1 2.89423 5.88664 4.99807
4 1 0.605083 7.42722 3.94523
45 1 3.13471 6.79895 7.503
10 1 0.400786 6.51536 9.41773
51 1 3.87955 7.28162 10.1913
7 1 3.05084 10.1524 4.33104
56 1 0.879007 10.1475 3.29215
62 1 0.266089 9.66543 7.17182
13 1 2.15983 8.42702 5.64885
32 1 2.34578 10.388 9.67032
33 1 1.80879 8.35857 11.0218
30 1 3.86923 2.4987 4.55269
17 1 5.80615 0.760575 2.91574
8 1 6.33576 -0.209671 5.55778
1 1 7.0318 2.31763 9.14662
48 1 4.38853 2.00592 10.941
3 1 5.78865 3.12335 1.91893
16 1 5.3443 5.30939 3.64101
31 1 4.36724 4.65034 7.73641
60 1 6.79604 5.65109 6.58876
36 1 6.06381 3.08204 5.77786
12 1 4.15882 5.11482 10.3804
61 1 6.55462 6.23301 1.0761
49 1 5.34968 8.42399 7.80998
6 1 6.09323 5.96556 9.07996
52 1 5.61036 10.6035 0.616522
63 1 5.14579 8.35093 1.62332
40 1 5.09027 8.35606 5.11037
54 1 7.61297 9.17503 6.94871
55 1 4.74018 10.1544 9.27108
2 1 9.80691 1.49711 2.44483
29 1 7.91648 2.37032 0.230472
41 1 8.98364 2.39911 7.06411
53 1 10.8994 1.21636 8.21298
27 1 8.16336 -0.101666 8.81843
59 1 9.0358 2.86909 4.39819
46 1 8.05298 5.00073 4.78649
21 1 8.87963 4.82827 7.81751
58 1 11.0581 5.20949 6.91194
9 1 10.2205 2.71269 10.2701
23 1 9.45001 5.08877 10.2163
39 1 9.82625 8.59797 1.05076
28 1 9.39092 5.84382 2.20381
11 1 9.00157 7.39919 6.69554
20 1 7.63171 7.50402 10.3474
19 1 9.665 8.58068 9.37206
26 1 7.65893 8.18648 2.51094
47 1 11.0352 10.7287 1.06667
64 1 8.32476 10.7127 0.365538
15 1 8.15339 10.5928 3.69718
37 1 9.75639 8.97538 4.65385
ITEM: TIMESTEP
13000
ITEM: NUMBER OF ATOMS
64
ITEM: BOX BOUNDS pp pp pp
0.0000000000000000e+00 1.1100000000000000e+01
0.0000000000000000e+00 1.1100000000000000e+01
0.0000000000000000e+00 1.1100000000000000e+01
ITEM: ATOMS id type x y z
5 1 2.45712 1.78607 2.27751
25 1 0.292898 1.5826 1.09969
30 1 2.17635 2.08681 5.47565
38 1 -0.342483 2.05767 5.36108
34 1 0.046274 2.66941 8.26383
24 1 2.04969 1.28648 9.50097
18 1 2.22919 4.39781 0.982601
44 1 0.562687 4.40601 3.5286
14 1 2.84226 3.97235 6.94303
43 1 0.678105 5.54291 5.93724
50 1 1.76395 4.53439 9.58396
22 1 2.46373 7.18274 1.52586
10 1 0.26515 6.37612 0.194715
4 1 0.210285 7.33035 3.21838
16 1 3.09524 5.82414 5.6196
13 1 2.37707 7.70065 7.00478
58 1 0.700875 6.75414 8.73737
56 1 2.17425 9.91685 1.4627
7 1 3.39757 8.90408 3.82119
62 1 1.01687 9.37529 5.17829
42 1 2.82176 10.9368 6.14921
32 1 2.69304 9.94086 8.64557
52 1 3.89702 0.689851 0.350346
17 1 4.6132 0.54756 3.45526
8 1 5.12321 0.80226 6.89417
48 1 4.69692 2.3494 9.79481
3 1 4.93191 3.51602 1.68727
61 1 6.62221 5.04716 1.99125
36 1 5.46968 2.95571 4.48328
31 1 6.78549 5.25506 8.49592
57 1 5.44144 3.53051 7.26523
12 1 4.37651 4.74519 10.2192
51 1 6.33325 7.20322 0.832095
63 1 4.52782 5.63173 3.37153
60 1 6.25358 7.07744 5.31398
45 1 4.23147 7.03739 8.95078
33 1 4.52472 8.58981 11.1178
64 1 6.07689 10.1084 0.979074
40 1 6.11269 8.95905 3.14748
49 1 5.93461 8.58088 8.26323
54 1 6.70981 9.72422 6.13427
55 1 5.56663 10.9482 8.91619
29 1 7.38916 1.73854 1.09895
59 1 8.24585 1.34196 4.43181
41 1 9.57066 0.0163463 5.90383
53 1 10.9981 -0.0819049 8.457
1 1 7.8358 1.83677 7.58081
27 1 8.5586 0.823118 9.79554
35 1 9.75697 5.03722 1.12189
2 1 9.76184 2.84554 2.59406
46 1 7.68273 4.48835 5.1171
21 1 8.95419 3.92324 7.25455
23 1 7.39204 4.50151 10.7805
9 1 9.4857 3.26117 9.88879
28 1 8.44415 6.48193 3.4549
11 1 9.18427 6.59817 5.98281
6 1 8.04403 7.29163 8.9397
39 1 9.85302 8.38399 1.43608
15 1 8.32165 10.7663 2.27798
37 1 11.114 10.5503 2.69201
26 1 9.37722 9.14004 4.8816
19 1 10.3237 8.59973 7.92773
47 1 11.0026 10.5204 10.8533
20 1 8.60267 9.27213 10.5541
ITEM: TIMESTEP
13500
ITEM: NUMBER OF ATOMS
64
ITEM: BOX BOUNDS pp pp pp
0.0000000000000000e+00 1.1100000000000000e+01
0.0000000000000000e+00 1.1100000000000000e+01
0.0000000000000000e+00 1.1100000000000000e+01
ITEM: ATOMS id type x y z
5 1 1.53432 2.71213 2.74904
37 1 1.8945 0.381946 4.1118
30 1 2.7123 0.46525 6.21505
24 1 2.11094 1.41563 8.72835
52 1 3.3714 1.1709 11.0703
18 1 2.29294 3.52392 0.248062
44 1 -0.136314 4.43407 1.47484
63 1 3.85743 4.40153 3.75285
43 1 1.32497 5.28789 4.76511
50 1 2.01573 5.36542 7.37016
22 1 1.81345 6.29732 2.40466
7 1 2.84781 7.81737 4.6582
58 1 0.903504 7.79084 7.37862
10 1 1.44793 8.18552 10.5117
12 1 2.17584 5.89664 9.993
56 1 2.97257 10.3101 1.75613
47 1 0.46603 9.24385 1.68267
4 1 0.439749 9.16799 4.23829
42 1 2.89172 9.45563 7.95198
32 1 3.95137 8.97195 10.2678
3 1 4.21885 1.73245 2.12886
17 1 5.94932 0.267266 3.14618
59 1 7.54011 2.66637 4.41425
36 1 4.66671 2.3244 4.92581
27 1 7.20844 2.02628 7.55731
48 1 5.22681 2.39349 10.5043
55 1 5.17003 -0.102635 9.59879
61 1 3.92282 4.89383 1.4889
46 1 6.30417 5.43549 2.95656
57 1 7.32863 5.02421 5.45199
16 1 4.11313 4.50423 6.31551
14 1 4.68152 2.86823 7.97253
45 1 4.79873 5.4575 9.31537
23 1 6.84149 5.22794 10.6995
51 1 6.36756 7.62797 1.98154
40 1 3.80888 7.88616 1.91843
60 1 5.88218 6.97926 6.00477
13 1 4.47441 7.26923 7.88088
33 1 5.93742 7.71058 10.5373
64 1 6.14884 10.3764 0.892633
54 1 5.34098 9.52089 4.55803
49 1 6.94624 8.10434 8.08891
8 1 5.05526 10.7662 6.79757
29 1 7.62247 1.77495 0.884202
25 1 11.1114 1.356 0.699336
41 1 10.5611 0.724435 5.27024
2 1 9.60054 0.963479 2.81443
34 1 10.9221 2.742 7.30689
1 1 7.6288 0.646205 5.74772
53 1 10.4405 1.04782 9.25865
20 1 7.77749 0.380821 9.53418
35 1 8.68398 4.04778 1.99827
38 1 9.97707 4.64733 4.09233
21 1 8.58563 4.30791 8.11642
9 1 9.17394 3.17087 10.677
39 1 10.4965 6.94062 1.41227
28 1 9.80312 7.17532 3.91144
11 1 9.38394 6.94255 6.94643
31 1 9.13872 5.78719 9.94112
15 1 8.96435 9.97141 1.71868
26 1 7.92882 8.96096 3.78083
62 1 10.0442 9.73034 6.20929
19 1 10.9209 9.45589 8.8721
6 1 8.71384 8.97016 10.6436
ITEM: TIMESTEP
14000
ITEM: NUMBER OF ATOMS
64
ITEM: BOX BOUNDS pp pp pp
0.0000000000000000e+00 1.1100000000000000e+01
0.0000000000000000e+00 1.1100000000000000e+01
0.0000000000000000e+00 1.1100000000000000e+01
ITEM: ATOMS id type x y z
25 1 0.561154 1.66601 0.489278
52 1 3.57111 1.71305 0.833211
30 1 1.93592 0.426813 6.57102
9 1 1.39939 1.11099 8.65417
61 1 2.54401 4.3904 0.267261
5 1 1.53838 3.1442 3.62442
50 1 1.58477 5.28813 6.26342
24 1 2.72176 3.16519 6.06586
18 1 2.67014 3.33 8.97343
22 1 1.09649 6.708 0.971957
43 1 2.31615 6.02777 3.70357
42 1 2.37253 7.96083 7.66539
12 1 0.725613 6.32213 9.16579
32 1 3.68522 8.06595 10.3664
56 1 3.08177 10.9798 2.35948
40 1 2.99774 8.2984 1.91915
7 1 1.85061 8.57158 4.7008
37 1 1.36194 11.0424 3.5996
4 1 0.588916 9.34055 7.17724
19 1 1.34722 8.97306 10.4994
53 1 3.01381 10.8837 10.505
29 1 7.06914 1.20512 0.0279285
36 1 5.3359 1.27001 5.56389
3 1 5.70785 1.82665 2.94198
14 1 4.80154 2.62965 7.39852
48 1 7.348 2.48406 9.0961
46 1 4.61966 4.6794 1.71358
63 1 4.76059 4.1642 3.8725
57 1 6.90641 4.65215 5.26797
45 1 4.0258 5.40695 9.93032
16 1 5.69273 4.7352 8.4085
39 1 6.19788 6.80016 0.310254
60 1 4.31921 7.10725 5.34434
51 1 5.58562 7.6822 3.07222
13 1 5.93563 8.29879 7.52322
11 1 7.31015 6.16083 6.98849
33 1 7.20094 7.91812 9.59364
64 1 5.87699 10.4105 2.10369
49 1 6.82158 10.4886 5.31813
20 1 6.70215 10.9407 8.28749
8 1 4.06587 10.5625 7.83137
54 1 4.30794 9.76533 5.55427
55 1 5.48418 10.3098 10.6945
2 1 9.51078 1.43631 1.25649
17 1 8.6788 0.0113524 3.69353
27 1 9.40672 1.8285 8.13002
59 1 7.9757 2.53005 5.7262
35 1 7.36438 3.75642 1.77171
21 1 10.7401 3.97331 0.226579
38 1 10.5876 4.62308 5.3179
41 1 9.10172 2.90318 3.53071
23 1 8.50474 4.871 10.2641
34 1 10.958 3.85593 8.37819
10 1 9.71289 7.74217 0.720589
44 1 9.82183 5.68702 1.65582
28 1 10.0393 8.0982 4.15378
26 1 7.57764 5.73196 3.33434
58 1 10.3408 7.25018 6.2708
31 1 9.79444 7.0191 9.23142
15 1 7.84847 8.49719 2.31912
47 1 10.9133 10.2461 1.09526
1 1 9.83113 10.2996 5.78182
6 1 8.36533 10.355 11.2138
62 1 10.1857 10.8772 8.8092
ITEM: TIMESTEP
14500
ITEM: NUMBER OF ATOMS
64
ITEM: BOX BOUNDS pp pp pp
0.0000000000000000e+00 1.1100000000000000e+01
0.0000000000000000e+00 1.1100000000000000e+01
0.0000000000000000e+00 1.1100000000000000e+01
ITEM: ATOMS id type x y z
5 1 0.461579 2.32762 1.41709
56 1 2.80254 0.313748 2.26578
30 1 2.33309 0.643021 6.64986
61 1 1.77613 1.95781 10.4048
27 1 0.361511 2.05975 8.5797
43 1 2.46034 5.4525 2.30055
52 1 2.47282 3.04477 3.43541
24 1 1.5409 3.94286 6.92497
18 1 3.20544 4.00191 9.25642
22 1 1.87438 4.73901 11.0266
47 1 0.699164 7.68664 2.31499
7 1 2.24876 8.1163 4.29418
50 1 0.549173 6.0255 4.67654
4 1 0.440096 8.16045 6.3064
19 1 2.59575 8.12127 11.086
12 1 1.21754 6.95678 9.43778
25 1 0.0130485 10.0783 1.65876
54 1 3.31365 10.7774 4.48678
37 1 0.252338 11.1265 4.70746
42 1 2.28125 9.48937 7.67617
53 1 3.68114 9.95438 9.51367
9 1 1.46364 10.3123 11.0022
55 1 4.97537 1.75501 0.827229
3 1 6.34179 1.74051 3.5736
36 1 6.7654 2.09573 6.15655
48 1 7.01949 0.45655 8.41208
8 1 3.94722 1.12554 8.66734
29 1 5.51774 4.12667 0.187435
26 1 6.33447 4.76088 4.04026
57 1 6.33589 4.73096 6.64841
60 1 4.08981 5.39997 5.69302
63 1 3.98121 2.96829 5.73116
14 1 5.72961 3.39787 8.63944
35 1 7.01239 5.57955 1.44938
51 1 4.58863 6.15668 3.35368
45 1 3.76211 7.34574 7.58328
11 1 7.36375 7.11338 5.87325
32 1 6.93415 6.7473 8.81358
46 1 4.39053 5.99351 10.5455
39 1 5.95327 8.17235 10.9214
40 1 4.24392 8.67421 2.08319
13 1 5.47148 9.38693 5.08293
64 1 7.01595 9.93664 3.07829
20 1 5.44706 9.64814 8.08537
33 1 6.51747 10.5833 11.0167
17 1 9.2122 0.69244 1.1403
38 1 9.67725 2.13337 3.93203
1 1 10.0841 0.226033 7.33054
2 1 8.49771 2.38954 10.5667
41 1 8.18205 3.08161 1.97382
10 1 10.4505 5.12394 1.21941
44 1 10.9368 3.93729 3.4011
59 1 9.63046 3.47016 6.49831
21 1 10.2103 3.92579 9.71226
16 1 7.56266 4.65804 9.814
23 1 8.67165 6.81092 0.369312
15 1 7.75441 7.06033 3.42726
58 1 9.61772 5.86907 6.39623
34 1 9.88431 6.60144 9.0427
28 1 9.88693 8.84847 4.03155
49 1 8.10613 9.69241 5.77561
31 1 8.18481 9.33784 8.02841
62 1 10.828 9.58343 8.95714
6 1 8.93884 9.67395 10.9982
ITEM: TIMESTEP
15000
ITEM: NUMBER OF ATOMS
64
ITEM: BOX BOUNDS pp pp pp
0.0000000000000000e+00 1.1100000000000000e+01
0.0000000000000000e+00 1.1100000000000000e+01
0.0000000000000000e+00 1.1100000000000000e+01
ITEM: ATOMS id type x y z
56 1 1.27128 2.27949 1.69298
27 1 2.57738 0.688119 7.93561
37 1 0.562811 -0.203937 5.78376
63 1 3.39888 2.46293 5.76768
8 1 2.80663 1.79462 10.3278
22 1 1.69648 5.69697 1.80602
47 1 1.09847 4.29988 4.41636
52 1 3.466 3.12636 3.34241
24 1 0.316178 5.20317 7.17464
18 1 2.93095 5.07432 8.41739
61 1 1.95136 4.24136 10.8865
19 1 2.43672 7.99436 1.19613
60 1 2.29479 6.53059 4.96579
12 1 2.69202 6.8213 9.69931
9 1 1.25688 9.73271 0.489133
25 1 0.282388 11.3341 2.8201
7 1 1.47939 8.21712 3.48505
54 1 2.31432 10.8441 3.97135
4 1 1.06057 8.75589 6.7146
42 1 1.36326 9.12404 8.90393
29 1 5.33699 1.18955 0.738006
3 1 6.06564 0.498885 4.91676
55 1 4.38544 0.525013 3.04441
48 1 7.09939 1.93795 8.13945
30 1 4.21968 -0.297204 6.62129
43 1 4.84066 4.26916 0.974172
35 1 6.05219 4.80844 3.75539
26 1 5.66447 2.95829 5.70808
36 1 6.92701 4.52585 8.2281
14 1 4.60554 3.70074 9.45803
39 1 7.51362 7.95569 0.193848
51 1 4.14805 6.53053 2.88898
57 1 4.98457 5.9803 6.5936
32 1 6.53933 6.98889 9.07356
40 1 5.38583 8.92921 1.63187
64 1 7.72766 10.8533 1.77007
13 1 5.87233 8.52774 3.98922
20 1 7.0409 8.93748 6.56438
45 1 3.51446 8.93551 5.37808
46 1 4.18453 8.89163 8.40495
53 1 4.07903 10.3671 10.527
33 1 6.47885 9.64174 9.56068
5 1 10.391 2.46642 -0.143897
38 1 8.57475 0.60275 4.3381
44 1 9.40631 2.32186 2.86785
1 1 9.60199 1.66176 6.53754
2 1 7.88462 1.21195 10.8163
62 1 10.9039 0.670919 8.86667
10 1 10.5476 5.01536 2.03075
41 1 7.19978 2.70035 1.92824
59 1 9.74963 3.66939 4.89352
16 1 7.79264 5.28977 10.696
21 1 9.84185 4.16775 9.3696
23 1 10.5012 7.132 0.930895
15 1 7.96903 5.3241 1.91717
50 1 10.6927 6.59856 4.80425
11 1 8.30444 6.51184 4.29116
28 1 10.2812 8.49698 2.77956
58 1 7.24186 6.64208 6.76001
34 1 11.3303 6.35277 9.43202
17 1 9.81086 10.5965 0.823562
49 1 9.1103 9.65299 4.93725
31 1 9.60814 8.81323 7.30544
6 1 9.63294 8.62743 9.96163
ITEM: TIMESTEP
15500
ITEM: NUMBER OF ATOMS
64
ITEM: BOX BOUNDS pp pp pp
0.0000000000000000e+00 1.1100000000000000e+01
0.0000000000000000e+00 1.1100000000000000e+01
0.0000000000000000e+00 1.1100000000000000e+01
ITEM: ATOMS id type x y z
56 1 0.578 2.27133 0.785926
55 1 2.59563 0.667204 0.564631
25 1 0.603504 1.20092 3.08617
47 1 2.14532 2.15858 4.73087
8 1 3.74487 2.37685 9.75684
27 1 2.33255 0.614024 8.64096
61 1 2.22706 3.86592 -0.183525
10 1 1.72607 5.00025 2.5936
60 1 0.794093 5.0324 5.30655
18 1 2.47439 2.89124 7.40287
19 1 2.54206 7.85149 0.514581
50 1 0.177931 8.29748 4.56549
46 1 2.7608 7.75739 4.95389
24 1 2.23857 5.88593 7.30674
34 1 0.142739 6.79391 10.8614
7 1 1.41118 9.829 2.25286
54 1 3.65173 9.93667 3.88812
37 1 1.87872 10.7013 5.733
12 1 2.02134 8.70352 7.85026
42 1 0.0413707 9.1226 9.18191
53 1 3.34132 9.88096 10.3566
3 1 4.61125 1.05874 3.94968
63 1 5.27404 0.766113 6.51883
2 1 6.40828 0.482045 8.91755
29 1 5.97742 1.93755 10.9582
41 1 6.50195 4.25769 0.913203
52 1 3.74042 2.8848 2.11812
35 1 6.63781 3.14487 3.30572
51 1 4.06408 4.317 5.54831
26 1 6.49813 3.06697 6.53183
14 1 5.27904 4.11289 8.56343
13 1 6.73046 6.1412 3.54258
22 1 4.18908 5.48192 3.27102
57 1 4.49457 6.22554 6.97223
58 1 6.66897 6.942 6.76123
32 1 4.85198 7.16162 9.17751
43 1 4.36887 5.48912 11.2274
40 1 5.09973 8.48965 2.00797
64 1 6.33448 10.8904 1.88608
20 1 7.11044 10.516 5.26612
45 1 5.97403 8.63419 4.95457
30 1 4.58312 10.2029 7.78438
33 1 5.46158 8.64231 10.7515
5 1 8.63652 1.01679 1.70386
38 1 8.4827 2.27718 4.88221
49 1 10.0479 0.136859 4.98166
1 1 10.8229 2.70567 7.86323
48 1 8.37194 2.53444 8.79772
62 1 10.3425 0.965767 9.71549
16 1 9.59121 4.07864 0.19879
44 1 9.63731 3.52932 2.82838
59 1 9.61889 4.50772 6.45468
21 1 11.2387 4.82006 9.21778
36 1 8.12555 5.52819 8.55414
23 1 10.5711 6.435 2.26107
39 1 7.95528 6.2079 0.954358
15 1 8.95224 5.8368 4.37005
6 1 8.93856 7.36297 10.0342
28 1 8.89005 8.68664 1.80255
9 1 10.5407 10.0493 0.228483
11 1 8.92189 8.87453 4.41994
31 1 7.44223 9.45515 7.7067
4 1 10.0224 9.04642 6.9792
17 1 7.76039 9.46021 10.1683
ITEM: TIMESTEP
16000
ITEM: NUMBER OF ATOMS
64
ITEM: BOX BOUNDS pp pp pp
0.0000000000000000e+00 1.1100000000000000e+01
0.0000000000000000e+00 1.1100000000000000e+01
0.0000000000000000e+00 1.1100000000000000e+01
ITEM: ATOMS id type x y z
56 1 1.49439 1.41109 0.253667
47 1 1.40426 2.22086 3.18043
37 1 2.18366 0.888724 6.67058
27 1 0.24978 2.09759 9.15895
8 1 3.74408 1.47227 10.4357
10 1 0.318285 4.14346 2.21939
60 1 2.44958 3.53049 5.45123
59 1 0.2721 4.63006 6.47533
61 1 1.66041 4.46736 10.8426
18 1 2.46909 2.99245 8.70285
19 1 3.21416 8.44934 1.57273
23 1 0.705239 7.25641 1.91148
46 1 2.02237 5.55721 3.51833
24 1 2.08357 5.65928 7.53003
12 1 3.03411 7.0437 5.65765
21 1 0.254258 6.87957 9.12876
53 1 2.72349 7.37529 9.92136
55 1 1.58505 10.3988 1.57619
45 1 2.56521 9.85892 4.54934
50 1 0.341521 9.26168 5.7662
42 1 1.48645 10.5169 8.80781
34 1 0.1739 9.0421 10.4946
52 1 4.07811 2.34997 2.1733
35 1 6.53172 2.23075 1.41553
3 1 6.82168 2.02538 3.95093
54 1 3.77739 0.316316 3.10561
63 1 4.78109 0.435277 6.39583
2 1 6.61847 1.20213 8.73142
43 1 4.05196 5.35615 0.00319624
51 1 5.12591 3.43568 5.02479
22 1 4.0289 4.78032 2.8518
41 1 6.96963 4.44739 10.8451
14 1 4.91182 3.57691 9.16684
28 1 6.12819 6.74054 1.04237
13 1 5.66702 6.11909 3.83984
57 1 4.87535 5.82619 6.38721
32 1 5.69102 7.45259 8.22858
64 1 5.98344 10.6311 0.86994
40 1 5.65616 8.56098 2.91397
30 1 4.40002 9.37661 7.95438
33 1 7.52537 8.46011 10.2249
29 1 4.17175 9.548 10.2338
44 1 9.58883 1.39315 2.24478
25 1 10.6593 0.738481 5.00822
49 1 10.4114 2.33346 7.01744
20 1 7.75573 2.13681 6.13002
48 1 8.79633 2.26458 10.5626
38 1 9.1366 3.2628 3.79068
36 1 9.03779 4.71849 8.13171
26 1 7.63086 4.58151 6.18522
1 1 10.3911 4.94564 10.2609
16 1 8.86644 6.46565 0.549816
15 1 10.5492 6.25819 4.59115
11 1 8.04404 7.94579 3.64878
39 1 7.90762 5.54217 3.00212
58 1 8.87135 7.46437 6.3313
6 1 8.91971 7.03916 8.69538
9 1 8.79391 9.03227 1.11394
5 1 7.94278 10.6907 3.92021
7 1 10.8147 9.43472 3.01553
31 1 7.58398 9.99318 6.19964
4 1 10.2286 10.346 7.3835
17 1 8.30721 10.4516 8.64986
62 1 9.63253 11.2363 10.6824
ITEM: TIMESTEP
16500
ITEM: NUMBER OF ATOMS
64
ITEM: BOX BOUNDS pp pp pp
0.0000000000000000e+00 1.1100000000000000e+01
0.0000000000000000e+00 1.1100000000000000e+01
0.0000000000000000e+00 1.1100000000000000e+01
ITEM: ATOMS id type x y z
61 1 2.60609 2.7375 1.54012
47 1 0.765896 1.53631 2.58868
37 1 3.72792 0.46715 8.01819
25 1 0.560763 0.836235 6.11273
42 1 2.10576 1.31169 10.0691
10 1 0.0867005 4.84759 0.664635
46 1 2.1752 4.76528 3.36367
51 1 1.78095 2.78154 4.71864
60 1 0.528551 3.90985 6.514
43 1 2.9989 4.51059 10.8476
18 1 2.45984 3.37717 8.84313
23 1 2.15071 6.46466 1.18107
12 1 2.66872 7.17477 4.20003
7 1 0.215697 7.84715 3.00187
24 1 2.72066 5.5041 6.85002
53 1 2.40815 7.29061 8.67465
1 1 0.0984171 6.32511 9.01128
55 1 1.83496 10.7214 2.99205
34 1 0.665327 8.76956 1.21393
4 1 1.33865 10.3064 8.18323
50 1 0.759893 8.35991 5.64952
45 1 2.76793 10.5279 5.627
29 1 2.62215 8.86987 11.0128
52 1 4.82735 1.74675 2.12015
35 1 6.99152 1.06586 2.76184
54 1 4.32406 0.894461 4.43403
63 1 5.95914 0.937596 6.51514
2 1 5.92225 1.4664 9.93628
22 1 4.76899 4.59818 1.96529
26 1 6.71716 5.41824 5.41208
57 1 5.83475 3.5519 7.97438
13 1 4.63992 4.27904 5.68079
14 1 5.76821 4.28104 10.344
28 1 5.49308 7.127 1.2419
58 1 7.09306 7.56261 6.21641
33 1 6.18837 8.01647 9.80689
32 1 4.71678 6.44927 8.38202
64 1 6.66309 10.2412 1.35708
8 1 4.44355 11.1905 0.432263
19 1 3.8191 9.1526 2.77892
40 1 6.00794 9.73442 3.85473
17 1 7.28217 10.2045 7.34665
30 1 4.68167 8.69327 5.91803
44 1 9.84715 0.39644 1.64377
31 1 9.46467 0.541571 4.4432
49 1 9.83116 1.62782 7.73734
62 1 8.17775 0.502119 9.07767
56 1 10.6057 0.349213 10.2653
48 1 9.28943 2.61679 10.9296
39 1 7.32707 3.83569 1.72251
38 1 9.68879 4.00994 2.98631
3 1 8.15466 2.96286 5.03108
20 1 8.70076 3.69785 7.32282
41 1 8.02875 5.26446 10.2477
27 1 10.868 3.74317 9.276
16 1 9.52351 6.48324 0.645075
11 1 7.40803 6.42599 2.32308
15 1 8.90021 6.40165 4.47634
59 1 10.4773 6.58965 6.5368
36 1 8.44311 6.64956 8.09736
5 1 8.9883 8.97457 3.05989
6 1 9.15939 9.51463 5.54175
21 1 10.2432 8.72102 8.58897
9 1 8.78303 8.93807 10.9906
ITEM: TIMESTEP
17000
ITEM: NUMBER OF ATOMS
64
ITEM: BOX BOUNDS pp pp pp
0.0000000000000000e+00 1.1100000000000000e+01
0.0000000000000000e+00 1.1100000000000000e+01
0.0000000000000000e+00 1.1100000000000000e+01
ITEM: ATOMS id type x y z
8 1 2.24691 0.348681 2.59189
42 1 1.14515 1.80618 1.14804
25 1 1.49283 0.631075 5.78562
27 1 0.150295 2.09641 7.86339
18 1 2.15856 2.00651 9.91254
4 1 2.50049 0.116325 8.33547
61 1 2.75401 3.87796 1.71316
7 1 0.146415 4.99528 1.95019
43 1 2.4495 5.59885 -0.507022
51 1 2.83282 3.40175 5.0577
60 1 0.483674 4.54749 5.93281
24 1 1.74188 4.16341 8.73882
23 1 3.08938 7.5243 0.871005
16 1 0.304309 8.03046 0.545257
50 1 0.839508 6.21706 4.08189
46 1 3.01205 6.23216 3.86724
53 1 2.03851 6.96983 8.43814
34 1 0.235371 10.4846 0.295188
55 1 0.398837 8.52615 3.12951
19 1 2.77782 9.09388 3.32783
21 1 0.683916 7.90035 5.97779