ITEM: TIMESTEP
10000
ITEM: NUMBER OF ATOMS
64
ITEM: BOX BOUNDS pp pp pp
0.0000000000000000e+00 1.1100000000000000e+01
0.0000000000000000e+00 1.1100000000000000e+01
0.0000000000000000e+00 1.1100000000000000e+01
ITEM: ATOMS id type x y z
41 1 2.99755 0.632974 1.18998
4 1 1.06007 2.48573 0.510115
23 1 0.704576 0.0789152 2.63421
33 1 5.24232 0.947704 3.07719
31 1 2.78807 0.871126 4.22761
1 1 4.85549 0.85641 5.66355
60 1 0.141759 0.39651 5.28743
53 1 1.20403 1.7561 8.48643
34 1 5.32431 1.5022 8.09174
11 1 4.57911 3.87618 1.17534
57 1 2.06577 3.61014 2.9277
40 1 4.95361 4.18029 4.12843
50 1 2.45784 3.01116 6.00964
21 1 3.78855 4.17434 7.38137
59 1 1.49146 4.95846 11.0567
9 1 0.120464 4.78112 9.26426
30 1 3.29753 2.86191 10.4201
45 1 0.665059 7.91162 1.57118
56 1 3.57874 8.15866 2.09768
22 1 2.02526 7.84679 3.95121
38 1 2.96629 6.30535 6.45611
5 1 0.560716 5.64651 5.08131
14 1 4.11187 8.10782 7.59081
43 1 0.363189 7.90009 7.41438
51 1 2.22152 7.04622 9.47273
18 1 4.48357 5.95647 10.2077
19 1 2.49734 9.41274 0.190249
16 1 4.47173 8.64549 4.93419
55 1 1.70957 9.68618 5.89129
63 1 2.63562 10.3787 8.05411
46 1 0.377757 10.5564 10.1631
35 1 4.35022 11.0852 9.67611
32 1 10.1116 1.57992 0.525832
54 1 8.40558 0.218817 3.77679
28 1 10.6821 2.45402 6.84641
36 1 8.35924 0.755427 6.85091
48 1 9.43743 2.48786 9.16823
2 1 6.75715 1.93313 10.8166
3 1 10.7637 5.48919 1.93889
44 1 7.36635 4.56899 0.706065
58 1 8.57315 5.41086 3.14095
24 1 10.718 3.20187 4.17334
8 1 7.38428 2.90517 2.75791
17 1 8.53796 4.57274 5.84889
27 1 6.82704 2.96865 5.39756
52 1 7.62713 3.49526 7.86479
37 1 6.25549 4.34658 9.43839
39 1 8.53565 7.86749 0.46208
10 1 5.92158 7.98779 0.305144
25 1 5.85746 5.98146 2.45676
26 1 6.3012 6.26722 5.50324
6 1 9.83282 7.35607 4.68496
62 1 8.68636 7.06428 7.35974
42 1 6.90042 7.90363 8.80117
47 1 10.0546 7.74351 9.45191
49 1 8.67692 5.70756 9.9883
15 1 7.81675 10.9524 1.41591
29 1 10.0678 9.27374 2.50822
12 1 5.79358 9.67651 2.29408
64 1 9.19018 9.42303 6.18165
61 1 7.10835 8.401 4.4538
20 1 5.6611 10.0437 6.9124
7 1 6.68806 10.4917 9.6103
13 1 9.10998 11.0449 9.27487
ITEM: TIMESTEP
10500
ITEM: NUMBER OF ATOMS
64
ITEM: BOX BOUNDS pp pp pp
0.0000000000000000e+00 1.1100000000000000e+01
0.0000000000000000e+00 1.1100000000000000e+01
0.0000000000000000e+00 1.1100000000000000e+01
ITEM: ATOMS id type x y z
31 1 2.05072 1.84813 2.00919
1 1 3.83582 0.460538 4.21945
50 1 4.96881 1.37049 7.92906
63 1 1.14213 1.88768 8.5531
5 1 3.0722 2.23984 6.55407
30 1 3.35889 2.26695 10.3885
41 1 1.41799 0.287974 10.5014
4 1 1.51624 4.08241 0.471802
57 1 2.35303 3.53465 4.33465
11 1 4.32011 3.12392 2.07635
40 1 5.03149 4.57812 6.18026
21 1 3.6813 4.85508 8.90884
19 1 1.35748 7.04235 1.93998
12 1 3.69108 7.99212 3.0449
56 1 3.88069 5.83233 3.09855
38 1 3.69685 7.30933 5.5214
6 1 0.613666 8.19606 4.91209
17 1 0.910332 5.50945 5.09904
14 1 2.5565 7.87218 7.63496
9 1 1.14768 5.76051 7.73062
37 1 5.20324 6.57488 7.97438
51 1 0.937319 6.86637 9.88255
59 1 2.9154 5.84773 11.2109
33 1 3.4296 10.604 1.48733
23 1 0.475589 10.182 2.0578
45 1 1.1382 8.89548 -0.0801788
18 1 3.89244 8.80136 0.0638428
22 1 1.89926 9.77875 3.93256
16 1 5.29047 9.34656 5.04299
43 1 0.0371228 10.0069 7.90676
55 1 2.48755 10.7923 6.99224
35 1 3.74999 10.6958 9.20136
8 1 5.73956 0.84082 0.769418
32 1 9.43874 1.58719 0.857552
54 1 8.04164 1.1148 3.96347
36 1 5.80873 1.92651 3.83476
44 1 10.5265 2.35286 3.06636
34 1 6.42788 0.613676 6.24514
60 1 11.2915 0.503222 4.93545
28 1 9.90543 1.18582 7.71192
2 1 7.16058 1.25111 9.55426
46 1 9.82769 0.267614 10.1711
25 1 6.41227 4.63267 0.45148
3 1 10.621 4.54937 1.84546
27 1 8.08609 4.14241 2.35626
52 1 7.85407 4.03441 5.6348
24 1 10.3431 3.50174 5.12117
26 1 7.45138 4.10157 8.30407
53 1 10.7842 3.94547 8.78513
48 1 8.87388 3.68689 10.3767
39 1 9.78909 8.13917 0.918333
10 1 7.05909 6.92472 1.73567
58 1 9.8845 7.38534 3.27482
42 1 7.10928 7.83149 6.44873
61 1 6.60088 6.40504 4.77569
62 1 10.5001 7.72776 7.01532
47 1 8.63946 7.48521 8.68512
49 1 9.55116 6.0825 10.25
7 1 6.76171 9.45302 0.839005
15 1 8.62571 10.3882 2.03463
29 1 7.89149 8.61839 4.12942
64 1 9.00927 10.8827 6.0195
20 1 5.66628 9.51149 7.69142
13 1 7.45851 9.68469 9.51702
ITEM: TIMESTEP
11000
ITEM: NUMBER OF ATOMS
64
ITEM: BOX BOUNDS pp pp pp
0.0000000000000000e+00 1.1100000000000000e+01
0.0000000000000000e+00 1.1100000000000000e+01
0.0000000000000000e+00 1.1100000000000000e+01
ITEM: ATOMS id type x y z
31 1 1.2404 0.607507 0.427329
33 1 4.99418 0.902077 0.593608
1 1 5.4946 1.34971 3.83525
23 1 3.50498 0.91491 2.9234
28 1 5.43734 1.69695 6.30783
5 1 3.07973 2.30812 6.85036
50 1 3.89849 1.37611 9.52104
4 1 0.369915 2.64025 10.6123
19 1 3.55232 4.76503 1.0665
3 1 0.530694 4.58714 1.9446
57 1 2.86639 4.61637 3.25211
17 1 0.757796 3.87861 4.46264
38 1 5.12669 4.94279 4.82558
9 1 2.54028 4.37593 8.17719
60 1 0.415542 2.9095 7.62976
21 1 3.92828 3.70619 10.1419
53 1 0.553575 5.27103 10.1489
56 1 4.92754 6.49922 2.25921
12 1 1.2137 6.51607 4.11783
37 1 3.93145 5.87956 6.80773
6 1 0.310945 6.67874 7.11806
51 1 2.39691 6.90161 10.9116
45 1 1.28009 8.83272 1.2146
7 1 4.91987 8.91664 0.975788
18 1 3.28595 8.81287 3.28652
34 1 5.2412 9.59702 5.55751
22 1 0.521052 8.83322 5.5174
16 1 3.06789 8.52009 6.16894
35 1 5.43426 10.66 8.26404
14 1 1.65437 8.24667 8.62533
55 1 2.31518 10.9699 7.44393
30 1 2.70582 10.3811 9.94832
59 1 4.30698 8.50235 9.85104
32 1 10.4677 2.42618 2.04566
54 1 8.18816 1.60701 3.05195
64 1 8.43326 1.17533 5.90598
43 1 10.8677 0.796439 6.19481
48 1 7.06316 2.30874 8.34728
41 1 10.454 0.199936 8.7718
63 1 9.56813 2.70082 9.12446
52 1 7.27222 4.70984 0.686416
11 1 5.50996 3.14868 0.929761
36 1 6.77217 3.82506 3.18549
44 1 9.39318 4.1603 3.73155
26 1 7.5408 3.92291 6.22032
24 1 9.66788 4.31346 6.21575
40 1 5.69493 4.47676 8.6714
49 1 10.7275 7.22524 1.83513
10 1 8.1195 8.33609 1.65604
27 1 9.77457 6.03913 -0.053175
58 1 9.48825 6.86572 4.08954
61 1 5.75775 7.02826 4.37536
42 1 9.14838 7.49431 6.63408
47 1 8.00897 5.64597 8.23347
20 1 5.94239 7.21108 6.9818
25 1 6.37229 6.74171 10.3655
46 1 8.94916 10.5129 0.749421
29 1 9.10868 9.48567 4.40757
15 1 6.99977 10.064 3.02906
39 1 10.7807 10.5296 2.38233
2 1 7.98262 9.56655 6.98342
62 1 10.3652 8.68704 10.0947
8 1 7.21108 10.9609 10.0385
13 1 7.76537 8.5384 9.52655
ITEM: TIMESTEP
11500
ITEM: NUMBER OF ATOMS
64
ITEM: BOX BOUNDS pp pp pp
0.0000000000000000e+00 1.1100000000000000e+01
0.0000000000000000e+00 1.1100000000000000e+01
0.0000000000000000e+00 1.1100000000000000e+01
ITEM: ATOMS id type x y z
1 1 4.36839 1.76116 2.10069
31 1 0.418984 0.502673 3.16072
28 1 4.06873 2.29543 5.61642
5 1 2.96888 2.12849 8.31948
60 1 0.546195 0.68593 7.33114
50 1 2.83163 1.37729 10.8234
40 1 5.5793 1.88862 9.67777
3 1 3.18751 5.0895 1.64918
23 1 5.09707 3.58623 0.264807
38 1 4.83305 4.86836 3.86816
32 1 0.771258 3.29075 2.30768
17 1 2.2956 4.06748 4.34927
9 1 2.05858 5.1753 7.58807
21 1 3.81146 5.10279 10.0327
4 1 2.03526 3.79274 10.4007
45 1 0.757322 8.11214 1.72731
57 1 3.29 7.35037 3.40272
12 1 1.78362 6.45126 5.22889
37 1 4.07945 6.68169 6.51324
51 1 2.51784 7.26636 10.3477
53 1 0.00246677 6.06341 10.4252
7 1 4.00951 9.37713 1.50512
30 1 1.5768 10.4775 0.830353
15 1 4.65065 10.0964 3.82682
22 1 0.888945 9.34323 6.52302
18 1 1.95615 10.7227 4.91465
16 1 2.86692 8.65816 7.96374
34 1 4.08927 10.7489 6.77956
55 1 1.78905 10.3129 9.57068
59 1 4.90467 10.2958 9.67531
8 1 10.9244 2.09757 0.473429
10 1 8.84454 0.525996 0.552728
54 1 8.07755 1.35337 2.41485
64 1 5.37439 0.997909 4.24754
43 1 8.17293 1.40584 5.35425
24 1 11.0334 1.71755 4.95465
48 1 7.76956 0.916307 8.28138
63 1 9.73576 2.41035 9.19728
52 1 10.0033 4.2272 0.197245
11 1 7.22378 5.26153 -0.00867749
36 1 6.16996 3.36689 2.71998
58 1 8.88187 4.5351 2.42975
44 1 10.6671 5.09348 4.17346
47 1 8.20715 3.83348 5.88126
14 1 10.0261 5.10827 7.86732
26 1 6.0161 3.3173 7.60524
6 1 10.7478 3.13382 6.79809
27 1 7.79873 4.02883 9.33572
19 1 5.98236 7.61401 0.936603
29 1 10.624 7.76517 4.06921
61 1 7.59797 5.89031 4.71474
2 1 8.70647 7.65095 6.15936
20 1 6.28863 5.64393 7.15878
42 1 9.68497 8.16272 8.73163
49 1 8.61886 7.01453 10.5584
25 1 5.96617 7.14143 9.86475
62 1 9.44855 9.08963 1.04894
56 1 7.19726 9.57946 0.572064
33 1 6.0515 11.2959 0.661342
39 1 9.28621 9.89923 3.46624
46 1 7.28858 8.96701 3.60744
35 1 7.00041 10.2393 6.095
13 1 6.96757 8.79084 8.1666
41 1 9.88155 10.654 9.089
ITEM: TIMESTEP
12000
ITEM: NUMBER OF ATOMS
64
ITEM: BOX BOUNDS pp pp pp
0.0000000000000000e+00 1.1100000000000000e+01
0.0000000000000000e+00 1.1100000000000000e+01
0.0000000000000000e+00 1.1100000000000000e+01
ITEM: ATOMS id type x y z
3 1 2.28794 2.42041 1.21428
33 1 5.57135 2.74273 0.942605
50 1 3.87217 0.857284 0.016995
7 1 3.07089 0.0191152 4.2237
18 1 0.265527 0.919684 3.91278
34 1 3.66884 1.33847 7.1198
10 1 0.733848 0.289738 10.2946
4 1 3.08561 5.284 1.83938
57 1 5.61935 5.47195 0.963668
32 1 0.367375 3.60186 2.72359
36 1 5.1277 3.89585 3.38516
38 1 5.19605 3.27832 5.7541
28 1 2.74116 2.85635 4.74515
21 1 3.47707 4.6995 7.74029
6 1 0.943118 2.68894 7.29038
23 1 5.09616 3.72484 9.7355
5 1 2.26767 2.80894 9.57743
8 1 0.000672033 3.14301 10.5141
45 1 0.176148 5.71613 1.43458
30 1 3.03286 8.14271 2.35997
17 1 3.58563 6.59202 4.40451
12 1 1.66559 5.61986 5.47988
9 1 2.33774 6.64119 8.22804
37 1 5.22387 6.31806 7.42814
51 1 2.42971 7.19898 10.965
25 1 4.83583 7.41264 10.1423
1 1 0.803965 11.0972 1.6839
55 1 2.63972 9.80339 0.444005
29 1 0.238581 8.38966 2.79655
39 1 5.19023 9.41618 3.21634
22 1 0.301467 10.3966 6.20027
15 1 1.81586 8.93498 4.49095
16 1 5.36256 9.7972 8.36307
60 1 2.4411 10.3989 8.00176
58 1 9.63274 1.21009 1.06758
56 1 7.6243 0.30315 0.0545355
54 1 5.87977 1.15661 2.83499
43 1 9.13474 1.02408 4.98851
64 1 5.65743 0.236699 5.68775
48 1 7.73533 1.04052 7.35855
63 1 9.53702 2.21391 8.31008
40 1 5.72076 1.92387 8.53277
19 1 8.94503 5.17397 1.03988
47 1 8.70724 5.71137 4.01146
61 1 8.82423 3.4021 3.02824
24 1 10.2225 3.70171 5.33288
26 1 7.31077 3.56553 6.95414
27 1 8.0464 3.04821 10.3501
49 1 7.20721 4.99957 9.21742
11 1 7.3041 8.16364 2.26328
46 1 6.14457 6.0677 3.13843
20 1 7.90405 6.45932 6.10348
44 1 10.6402 7.16184 5.0169
42 1 10.6841 7.86486 7.40988
14 1 9.84382 5.57501 8.10303
52 1 10.12 6.06048 10.5631
62 1 9.6219 9.22517 0.966044
59 1 6.05874 9.19736 0.490106
31 1 7.98064 11.0767 3.13528
35 1 5.90745 8.45132 5.37628
2 1 9.17487 10.0218 6.61312
53 1 10.1041 8.44387 9.94321
13 1 7.34212 8.74713 9.36214
41 1 9.61049 10.9556 9.21405
ITEM: TIMESTEP
12500
ITEM: NUMBER OF ATOMS
64
ITEM: BOX BOUNDS pp pp pp
0.0000000000000000e+00 1.1100000000000000e+01
0.0000000000000000e+00 1.1100000000000000e+01
0.0000000000000000e+00 1.1100000000000000e+01
ITEM: ATOMS id type x y z
1 1 0.919775 0.370398 1.69896
3 1 3.92893 2.42846 0.771098
50 1 4.62739 0.0366546 0.293131
54 1 5.10456 0.694025 3.97082
28 1 2.90076 1.77542 3.1109
6 1 1.23983 1.92698 5.94213
34 1 4.10554 1.96918 6.20395
22 1 0.855509 0.126029 7.81554
5 1 2.70138 1.30992 9.26524
40 1 5.26132 -0.384626 9.00742
45 1 1.39182 5.43578 0.5545
33 1 4.78994 4.66927 0.244561
36 1 2.59172 4.02301 4.01403
24 1 0.0874212 4.27901 3.67139
38 1 5.16649 4.15424 5.08023
21 1 2.27833 3.63677 7.85868
23 1 4.62355 4.01244 8.9319
4 1 4.05502 6.56965 1.5237
12 1 1.83688 6.74337 2.57191
15 1 0.166166 6.8248 5.98471
30 1 3.0757 7.24062 5.30714
17 1 3.43871 7.63921 7.55751
9 1 -0.198031 6.28264 8.46121
25 1 5.41117 8.4308 9.36159
51 1 2.05735 6.24649 9.23724
39 1 4.40385 9.43133 2.08034
29 1 1.10094 8.38867 0.962291
7 1 2.37176 9.41412 3.20443
60 1 1.72009 9.42248 5.71899
35 1 5.39968 9.79024 5.08077
42 1 0.540346 8.74218 8.58297
10 1 3.72719 10.3831 7.25628
55 1 2.40194 9.83028 10.4666
58 1 9.11961 1.59947 1.46205
56 1 6.67885 1.23129 -0.0788836
31 1 6.36713 2.28725 3.38532
64 1 7.89246 1.52953 5.4859
32 1 10.2462 0.262173 5.15103
2 1 9.56249 1.19094 8.0197
49 1 6.16971 1.95786 7.85081
41 1 11.2723 0.511615 10.3809
27 1 7.73088 2.64374 9.36234
19 1 7.38131 4.10764 0.404826
8 1 11.3766 2.89473 0.685071
61 1 8.19251 4.21237 2.89513
26 1 7.71118 3.73953 5.77584
48 1 10.2669 3.13819 6.41171
14 1 8.68459 4.75383 8.33271
63 1 11.1879 3.72302 9.32338
53 1 9.48496 8.01695 -0.300265
52 1 9.8822 5.89898 0.81879
57 1 7.08341 6.38185 2.27579
47 1 9.71225 6.37578 3.65745
44 1 8.5296 6.69164 5.70579
46 1 5.73726 7.14656 4.77371
37 1 5.9431 6.07505 8.12352
20 1 8.18364 7.22016 8.41021
62 1 7.74295 9.75412 1.2279
59 1 5.98717 8.02823 0.872274
11 1 7.44403 9.89219 3.84266
18 1 9.6342 10.7505 2.61476
43 1 9.4937 8.99952 5.86213
16 1 7.49092 9.82208 7.53361
13 1 8.92686 10.3203 9.84169
ITEM: TIMESTEP
13000
ITEM: NUMBER OF ATOMS
64
ITEM: BOX BOUNDS pp pp pp
0.0000000000000000e+00 1.1100000000000000e+01
0.0000000000000000e+00 1.1100000000000000e+01
0.0000000000000000e+00 1.1100000000000000e+01
ITEM: ATOMS id type x y z
18 1 5.41481 0.207091 2.20558
56 1 3.97415 2.54956 0.514842
28 1 2.85725 -0.182581 2.26762
38 1 4.4281 2.27017 3.20661
6 1 1.63172 1.82643 4.86115
22 1 1.64063 3.16972 8.53294
34 1 3.87483 1.44961 6.89881
50 1 5.03352 0.111209 10.475
41 1 1.40059 1.13985 10.5227
3 1 2.95936 4.95495 1.37468
48 1 0.20448 4.59205 4.122
4 1 5.10642 5.02285 3.33417
36 1 1.189 3.07817 2.66724
30 1 3.71601 4.76346 5.54225
21 1 0.171991 2.85204 6.57047
23 1 3.71313 4.35892 8.42769
33 1 5.11716 4.94692 10.5876
45 1 4.32674 7.32653 1.27383
12 1 2.46169 8.12264 3.84659
47 1 0.889747 6.87641 2.82226
60 1 2.04407 7.03586 6.33563
46 1 4.97842 7.74549 5.34291
37 1 5.08372 6.75194 7.48024
9 1 -0.0614944 5.2887 7.62876
8 1 1.25194 5.92738 11.4947
51 1 1.82977 6.92628 8.92402
7 1 2.01868 8.71859 1.58599
32 1 0.738778 10.0746 4.99518
54 1 3.65416 10.3417 4.93024
17 1 3.86038 9.57181 7.13422
10 1 1.27424 10.7159 7.39161
55 1 2.7124 10.1295 9.64917
29 1 0.457169 9.00173 10.9884
59 1 5.51112 8.79903 9.84785
58 1 9.27047 2.04941 1.78168
64 1 8.05639 1.68392 4.21171
31 1 6.06944 0.592131 4.64478
49 1 8.60346 2.25564 7.16542
5 1 6.38313 1.57192 7.89874
27 1 7.4399 1.55056 10.5381
16 1 9.81849 0.967037 9.88611
52 1 9.74471 4.44585 1.04726
19 1 6.64967 3.49843 0.808904
61 1 7.16551 3.64912 3.26543
26 1 6.15258 3.70898 6.27889
2 1 9.15956 4.32887 4.70569
14 1 7.72467 4.27022 9.24814
53 1 8.98563 6.35099 2.16091
39 1 6.80454 7.89605 0.680182
57 1 6.75791 6.92043 4.4733
1 1 9.63681 8.04978 3.74311
44 1 8.45802 6.84599 6.16841
15 1 10.7808 7.85241 6.15298
25 1 7.04295 7.45291 8.32444
42 1 10.4633 7.96565 8.65684
63 1 9.49864 5.70053 9.91071
13 1 10.9872 11.4673 1.57959
62 1 8.22778 9.8358 1.32156
11 1 6.12203 9.18878 3.00525
24 1 9.59969 10.4302 3.78754
35 1 7.874 10.0231 5.64168
43 1 9.92417 11.0085 7.28967
40 1 6.45677 10.0602 7.97536
20 1 8.77721 8.21483 10.1648
ITEM: TIMESTEP
13500
ITEM: NUMBER OF ATOMS
64
ITEM: BOX BOUNDS pp pp pp
0.0000000000000000e+00 1.1100000000000000e+01
0.0000000000000000e+00 1.1100000000000000e+01
0.0000000000000000e+00 1.1100000000000000e+01
ITEM: ATOMS id type x y z
28 1 4.53245 0.463751 1.45087
56 1 2.12484 1.27741 0.224721
13 1 1.76262 0.445291 4.12212
54 1 4.39412 1.63798 3.75254
10 1 0.582477 1.43592 7.15284
34 1 2.89518 1.30433 6.73019
50 1 4.14181 1.38563 9.38508
19 1 2.53016 3.81068 0.265304
45 1 5.24707 5.6541 3.78681
3 1 1.28682 3.446 2.53193
48 1 2.0108 5.57994 6.18183
6 1 2.53169 3.08903 5.13003
22 1 2.33041 3.70519 8.17127
30 1 5.02345 5.18284 7.6992
23 1 3.86356 5.57883 10.1179
51 1 1.32111 6.39398 0.642268
37 1 3.71199 7.11793 0.818783
47 1 2.07671 6.09334 3.23552
15 1 0.247953 7.20802 4.68135
12 1 3.43157 7.89544 4.59458
60 1 1.80491 6.97956 8.69252
7 1 1.84093 9.79106 2.15622
29 1 0.576585 8.66732 0.215481
11 1 4.38968 9.09275 2.16145
32 1 1.76073 9.74128 6.48465
40 1 4.75156 10.9356 5.11539
17 1 3.23464 8.38161 7.07927
25 1 5.56142 8.73257 7.0449
55 1 2.95371 9.36184 10.0575
59 1 5.53759 9.96889 9.59794
42 1 1.01916 10.3011 9.04392
18 1 7.15198 1.13003 -0.420742
36 1 10.9787 1.25595 2.27137
64 1 8.78715 2.15815 3.98998
62 1 7.35409 0.443742 2.6303
43 1 8.34346 -0.120131 5.41633
49 1 6.04151 1.38602 6.46497
9 1 8.64838 2.21521 7.75263
5 1 5.90992 2.84942 8.95492
16 1 8.61025 3.13631 10.5
41 1 10.5075 1.14419 9.85569
53 1 9.1159 5.36707 0.868733
61 1 8.18252 2.98314 2.03929
38 1 5.71244 3.31743 1.98304
2 1 10.4414 4.62234 3.45228
21 1 10.2281 3.16722 5.76142
26 1 7.94265 4.73428 6.09269
4 1 6.17126 3.31235 5.44105
44 1 10.5373 5.12639 7.14104
63 1 5.64144 4.55948 10.9184
52 1 11.1765 3.63253 10.9455
33 1 6.25063 6.5276 1.41228
1 1 8.6548 7.73515 2.29533
46 1 5.79848 7.09398 5.36051
57 1 8.16348 6.82769 4.6106
14 1 7.88275 5.94583 8.77842
8 1 10.7865 5.91366 9.3341
58 1 9.52233 10.7539 1.03196
39 1 7.14285 9.07815 0.55388
24 1 10.5688 9.44047 2.77828
31 1 6.68972 9.47523 3.74527
35 1 9.86627 8.76477 5.74722
20 1 10.0437 8.52367 8.73974
27 1 7.96939 10.9395 8.22908
ITEM: TIMESTEP
14000
ITEM: NUMBER OF ATOMS
64
ITEM: BOX BOUNDS pp pp pp
0.0000000000000000e+00 1.1100000000000000e+01
0.0000000000000000e+00 1.1100000000000000e+01
0.0000000000000000e+00 1.1100000000000000e+01
ITEM: ATOMS id type x y z
28 1 3.71423 2.0277 1.01105
36 1 1.05397 1.3559 2.10237
54 1 5.12599 1.72851 2.89163
13 1 1.90823 0.444261 4.17495
6 1 2.89543 2.43714 6.28216
34 1 2.91003 0.195825 7.16243
22 1 1.12751 2.56929 7.95857
50 1 4.04589 1.0731 10.0075
52 1 0.919775 1.98364 11.0246
42 1 1.67165 0.371638 9.60908
47 1 3.51062 4.71506 1.07843
51 1 0.397964 4.30555 1.28147
3 1 2.77727 4.33122 3.39596
21 1 0.507655 3.41655 5.10407
48 1 3.48363 4.8567 6.23912
23 1 1.24846 4.97017 8.62746
19 1 3.34412 4.10586 9.90522
37 1 2.12739 8.03312 1.00669
12 1 3.67381 7.6144 3.86778
15 1 0.649012 6.21398 3.25844
45 1 5.50854 6.05248 3.98969
17 1 2.52837 7.7469 7.19658
60 1 0.512052 6.25544 10.9122
63 1 4.79925 5.94785 9.05371
55 1 2.67447 8.24991 9.74842
11 1 5.14888 9.93034 0.311319
56 1 2.48512 10.3272 1.66276
7 1 4.13598 10.3727 3.35709
40 1 4.17219 9.62004 5.59541
24 1 1.18748 8.58492 4.98122
59 1 4.66023 9.77255 8.80177
61 1 9.04255 2.12829 0.531289
62 1 6.75487 0.451791 1.50839
58 1 8.94743 1.46999 3.01068
32 1 10.5873 1.02943 4.88334
64 1 8.81509 2.69262 5.50127
10 1 9.05579 1.51652 8.86876
49 1 5.83434 0.208596 6.83229
41 1 7.65741 0.0905315 10.3067
18 1 5.83034 2.01747 8.8768
38 1 6.3552 3.15275 0.187913
2 1 9.80562 4.05542 2.99531
4 1 5.88804 3.99196 2.79407
30 1 6.33095 3.16943 5.11942
44 1 11.0935 5.51525 6.42106
9 1 8.2656 3.90979 8.23004
5 1 5.76839 4.0603 7.79378
8 1 10.6556 3.73903 10.3153
16 1 7.21748 5.3686 9.71275
33 1 5.73551 6.47078 1.02909
14 1 10.2819 7.94614 0.957858
53 1 8.44971 5.66351 0.721173
46 1 6.45599 8.12386 5.89081
57 1 7.83765 6.06618 5.29759
35 1 9.02485 6.2707 7.6285
39 1 7.80648 8.48411 0.0507463
31 1 6.30818 8.42728 2.81969
29 1 10.7853 9.91393 2.65916
1 1 8.30123 9.07535 4.24976
43 1 7.2905 11.0646 4.48893
25 1 9.02282 10.4883 7.16461
27 1 11.0318 8.45765 6.85642
26 1 7.27732 9.02828 8.68662
20 1 10.7802 9.3416 10.1108
ITEM: TIMESTEP
14500
ITEM: NUMBER OF ATOMS
64
ITEM: BOX BOUNDS pp pp pp
0.0000000000000000e+00 1.1100000000000000e+01
0.0000000000000000e+00 1.1100000000000000e+01
0.0000000000000000e+00 1.1100000000000000e+01
ITEM: ATOMS id type x y z
28 1 4.5749 1.41907 1.63519
56 1 0.721277 -0.00889211 0.811562
52 1 1.8002 2.28749 0.66612
54 1 3.18835 0.763241 3.96159
6 1 4.53284 1.11157 6.904
22 1 2.30151 0.793052 6.20411
25 1 0.295034 1.25456 8.69609
19 1 2.80135 1.90008 8.7271
38 1 5.58685 2.60443 10.1652
47 1 2.44802 4.45127 0.481048
45 1 5.14365 4.78035 3.28021
21 1 3.22101 3.41139 4.13261
3 1 2.989 4.48354 6.29181
44 1 0.851006 3.22844 5.51942
5 1 5.67349 3.44103 5.81593
8 1 1.81592 3.92902 8.68748
16 1 5.31975 4.17962 8.04347
37 1 3.88984 7.84373 1.67282
60 1 0.92745 6.33791 0.398751
24 1 3.13426 7.60515 4.52431
15 1 1.48053 5.4885 2.90405
14 1 0.351087 7.45639 2.28131
12 1 5.19612 6.36525 4.96496
48 1 0.65854 7.77285 5.73945
40 1 4.67828 6.57576 7.85055
55 1 1.03356 6.41116 8.06414
33 1 2.6271 8.1149 9.9929
63 1 3.61191 5.41353 9.51007
11 1 3.22897 10.235 0.413319
7 1 4.64297 9.42101 3.86909
17 1 0.606103 10.072 6.83392
13 1 4.29669 8.61279 7.18356
42 1 0.683528 9.7352 9.65331
34 1 3.90391 10.6672 8.9862
41 1 8.47468 2.34689 2.01207
50 1 6.48009 0.264892 0.799875
62 1 5.56893 1.84152 3.82533
36 1 10.6872 1.53028 3.02126
32 1 10.6382 0.892488 5.49447
18 1 7.2716 1.37606 7.25828
10 1 9.29118 2.85413 9.00002
58 1 6.24918 3.91507 0.8715
61 1 10.5949 3.69555 0.438527
30 1 7.74051 4.18942 3.57215
51 1 9.95901 4.33118 3.55547
64 1 8.63276 3.0071 6.13145
57 1 7.72963 5.46225 6.59444
9 1 9.45962 5.41072 8.64101
4 1 5.3463 6.72834 0.00659712
53 1 8.58761 5.84321 0.332014
1 1 8.64401 7.52837 2.53264
31 1 6.09012 7.64941 3.04115
46 1 7.82357 8.14709 5.52669
2 1 9.37062 6.60902 4.61522
23 1 9.77333 7.698 7.74437
20 1 10.1393 7.91771 10.6869
35 1 7.41981 7.28756 8.87684
29 1 9.05982 9.88986 0.251641
43 1 8.76187 10.1623 2.49741
49 1 5.76195 10.4346 6.01393
26 1 8.49905 10.202 6.03991
27 1 8.65029 9.76638 8.3613
39 1 6.59397 8.97857 11.0923
59 1 6.58583 11.0825 9.29958
ITEM: TIMESTEP
15000
ITEM: NUMBER OF ATOMS
64
ITEM: BOX BOUNDS pp pp pp
0.0000000000000000e+00 1.1100000000000000e+01
0.0000000000000000e+00 1.1100000000000000e+01
0.0000000000000000e+00 1.1100000000000000e+01
ITEM: ATOMS id type x y z
56 1 1.47733 0.971632 1.95154
38 1 4.1551 2.82868 0.976936
11 1 4.26767 0.639869 2.31732
6 1 4.04279 0.976302 4.98603
54 1 0.593576 0.0785786 4.73753
44 1 2.28186 1.36923 7.22177
25 1 1.14132 0.0904025 9.54272
63 1 1.93586 2.25203 10.9669
16 1 3.97188 2.26968 8.93652
59 1 5.43871 1.24816 10.5056
47 1 2.72832 5.19217 1.99697
4 1 5.34275 4.71975 0.378559
45 1 5.25131 5.72171 3.26696
52 1 0.534441 4.22175 2.1154
21 1 4.31929 4.02291 4.94948
51 1 1.72859 3.43438 4.23048
8 1 0.264372 3.09559 8.83541
55 1 2.35664 3.94496 7.15378
60 1 1.9343 5.25935 10.2813
3 1 3.92716 4.6548 9.0351
14 1 0.285924 7.27677 0.548848
15 1 2.41374 7.41515 2.65161
48 1 0.089964 8.36771 2.8314
12 1 4.83206 6.74937 6.4762
24 1 2.76336 6.22813 4.94225
40 1 4.81068 7.6606 8.89854
33 1 1.09938 7.19281 6.79685
9 1 0.14788 7.42323 9.26353
37 1 3.76194 7.47053 11.2825
19 1 2.26809 9.92627 0.546742
7 1 2.7664 9.54111 3.9005
49 1 4.92334 8.75894 3.62482
22 1 3.62424 9.49193 6.18553
42 1 1.2224 9.75293 7.24072
34 1 4.33396 10.4205 9.47415
50 1 7.51206 1.92546 1.42897
36 1 9.50177 1.02994 4.02786
62 1 6.98103 1.60233 3.91318
32 1 9.55572 2.75968 6.20594
27 1 7.98188 1.21018 7.61653
18 1 5.79774 0.582411 7.14889
29 1 9.61035 0.772539 9.74904
58 1 7.44899 4.36586 0.872022
41 1 10.3694 2.81167 0.502771
5 1 7.63672 4.81105 3.37606
30 1 10.1959 4.51456 4.7961
57 1 6.51145 5.25103 8.03103
10 1 6.83934 2.87641 8.70843
61 1 9.39526 4.35445 8.91321
39 1 6.77884 7.07458 1.01552
1 1 8.90088 5.78635 0.717066
31 1 8.82715 7.77724 2.61201
46 1 7.59365 6.72788 4.59491
2 1 10.6977 6.85957 5.1767
64 1 8.98825 6.7037 7.17668
53 1 7.39164 6.91543 9.59461
28 1 5.65773 9.44152 1.16875
26 1 7.52199 9.48708 4.48657
43 1 8.06591 10.5732 2.27508
17 1 9.83352 9.88206 6.11381
13 1 5.94654 8.82965 6.39663
23 1 8.12813 8.83242 8.2308
20 1 9.19145 9.3072 10.766
35 1 7.10239 10.3666 10.5342
ITEM: TIMESTEP
15500
ITEM: NUMBER OF ATOMS
64
ITEM: BOX BOUNDS pp pp pp
0.0000000000000000e+00 1.1100000000000000e+01
0.0000000000000000e+00 1.1100000000000000e+01
0.0000000000000000e+00 1.1100000000000000e+01
ITEM: ATOMS id type x y z
56 1 2.40256 1.29697 1.77282
51 1 4.02433 1.76555 3.90714
6 1 1.66808 2.07215 5.44517
44 1 2.7722 1.45082 8.15127
63 1 1.32899 0.590062 10.6554
59 1 4.06953 1.84403 10.4465
47 1 2.34228 4.33852 2.09116
30 1 0.335364 4.0195 4.61816
21 1 4.40156 3.97051 5.92684
55 1 2.28369 4.00559 7.63594
3 1 3.59185 4.37168 9.99882
60 1 0.633028 5.03422 10.4523
14 1 1.92026 6.78541 0.41111
37 1 4.69824 5.48622 2.09217
31 1 0.119543 7.40073 2.69007
15 1 2.35385 8.01013 3.67921
33 1 2.06595 7.03712 6.71421
12 1 4.79967 7.4787 6.05645
24 1 2.50197 5.3121 4.62042
9 1 0.886919 7.51801 9.16677
40 1 4.36032 6.70163 8.74668
11 1 4.5034 10.9469 1.55721
28 1 4.80656 7.94524 0.908652
49 1 4.83488 8.97771 2.91204
7 1 1.88822 10.4461 3.35151
42 1 1.49796 9.35377 5.74869
26 1 4.72115 10.8487 5.19495
22 1 3.44722 9.11432 7.32051
25 1 1.01272 10.6736 7.70799
18 1 4.93076 10.8746 8.20347
34 1 2.60263 8.87641 10.3311
19 1 -0.0475939 9.64863 10.4526
35 1 5.67891 10.0653 10.5545
38 1 6.98922 1.35009 2.21864
36 1 9.75385 1.6224 3.60923
54 1 10.6579 0.831145 5.85307
62 1 7.66052 1.73782 4.28076
27 1 8.07049 0.484953 6.53393
16 1 6.00725 1.49814 6.85753
10 1 6.64653 1.73236 9.80699
8 1 10.6915 2.61736 10.8542
29 1 9.30035 1.47769 8.86011
41 1 8.48575 3.38325 1.55215
4 1 6.26438 3.96786 0.529697
52 1 10.6968 4.54169 2.30392
50 1 7.95547 4.19835 4.43023
61 1 6.70592 5.16803 6.20696
57 1 6.15581 4.24204 8.51341
32 1 10.8975 3.04621 7.85009
58 1 8.60549 4.18325 9.87178
39 1 7.56246 7.82918 0.452425
45 1 6.487 6.52573 3.44223
5 1 9.06684 7.29644 3.34123
46 1 9.91604 6.065 5.43584
64 1 10.5646 6.16259 8.08858
1 1 8.29815 7.25685 9.12655
43 1 7.28122 10.114 1.67277
17 1 8.71667 9.53871 4.20752
48 1 10.3929 10.2805 2.45784
13 1 6.61337 9.09381 5.81475
2 1 10.1623 8.60443 5.79357
23 1 9.64012 9.21844 8.65117
53 1 6.59839 8.64177 8.23237
20 1 8.9182 10.4289 11.0286
ITEM: TIMESTEP
16000
ITEM: NUMBER OF ATOMS
64
ITEM: BOX BOUNDS pp pp pp
0.0000000000000000e+00 1.1100000000000000e+01
0.0000000000000000e+00 1.1100000000000000e+01
0.0000000000000000e+00 1.1100000000000000e+01
ITEM: ATOMS id type x y z
56 1 2.52598 2.25433 0.4023
7 1 2.42983 0.334757 1.62514
51 1 4.38159 1.30712 2.76051
6 1 0.0449142 0.555128 3.02392
44 1 1.07365 1.91378 5.00832
13 1 4.94008 0.857751 6.09933
18 1 3.02493 0.86258 7.81858
63 1 1.21114 0.875347 9.66005
11 1 4.43987 0.339077 9.88587
28 1 4.0479 4.36161 0.850412
52 1 1.00644 4.54022 4.30665
47 1 3.17877 3.68031 2.94392
16 1 4.33191 2.89981 4.87621
59 1 1.52294 3.24932 7.17956
3 1 3.5016 3.04511 9.26866
60 1 2.06458 5.47352 9.44929
31 1 1.50727 6.39642 0.917922
14 1 4.05891 7.42546 0.134904
15 1 3.74851 6.6347 2.25236
24 1 2.89229 6.53225 4.90665
2 1 0.889178 8.07862 6.29515
21 1 4.99643 5.90928 6.43111
55 1 2.86529 7.34649 7.95914
49 1 4.41496 9.7322 1.81281
42 1 2.05446 8.34326 2.94102
25 1 0.50509 10.7989 6.06791
26 1 2.92613 10.4021 4.55062
12 1 4.13558 8.89509 5.95226
22 1 2.10507 9.52845 8.38008
34 1 5.10015 9.35429 9.99049
9 1 1.8198 9.55911 11.0286
4 1 5.85178 1.7524 0.383172
58 1 8.1416 2.5469 0.82591
38 1 7.05594 0.640758 3.99822
20 1 8.99134 1.59123 2.86176
32 1 10.4727 2.03572 7.90695
10 1 7.45564 1.24002 8.8422
29 1 10.5018 1.2639 10.9854
41 1 10.9834 4.3129 2.0987
5 1 9.03296 5.31626 2.05554
37 1 6.65278 4.5353 2.56021
54 1 9.31669 2.82269 4.90039
62 1 6.82419 2.95568 5.16888
50 1 8.59991 5.43766 6.32432
64 1 8.20557 3.23168 7.04781
1 1 5.96527 5.14449 10.5664
8 1 10.9602 3.8558 10.4246
57 1 6.03363 3.24087 9.02384
46 1 10.0631 6.84119 4.22088
45 1 6.95157 6.02515 4.64294
61 1 9.51642 8.06963 7.76679
40 1 5.64541 6.58686 8.63657
30 1 11.0797 5.58431 7.10395
23 1 7.81124 6.76154 11.0073
33 1 9.85304 5.6216 9.38144
39 1 6.71021 8.65239 0.88828
48 1 10.69 8.45408 1.62516
35 1 7.84742 10.9463 0.282547
43 1 6.17248 9.09802 4.20799
36 1 9.80725 9.31461 3.90984
17 1 8.16059 10.3495 5.53362
27 1 9.65735 10.7763 7.49703
53 1 6.67973 9.24811 7.83142
19 1 10.8639 8.35983 9.91015
ITEM: TIMESTEP
16500
ITEM: NUMBER OF ATOMS
64
ITEM: BOX BOUNDS pp pp pp
0.0000000000000000e+00 1.1100000000000000e+01
0.0000000000000000e+00 1.1100000000000000e+01
0.0000000000000000e+00 1.1100000000000000e+01
ITEM: ATOMS id type x y z
44 1 1.27907 0.250368 3.69715
51 1 3.63884 0.472429 5.61717
26 1 2.37515 2.31907 7.51711
63 1 1.08242 1.84366 9.90148
28 1 3.62971 1.31938 10.8354
3 1 4.91696 2.21697 8.97586
47 1 4.26931 3.2022 2.72497
18 1 0.632763 3.25651 3.69396
31 1 2.65816 5.09708 2.2721
16 1 3.16951 4.35548 5.0039
62 1 5.40631 3.26368 4.91636
59 1 2.01771 4.56157 7.82084
40 1 4.79432 5.13335 6.93843
56 1 1.56797 4.30182 10.8043
30 1 1.3999 6.59624 0.352949
24 1 2.13397 6.72207 3.96102
2 1 0.601765 7.5075 8.87045
55 1 3.47768 7.03011 7.89731
60 1 4.23271 5.80931 10.4633
7 1 1.14859 10.918 0.676652
9 1 3.06595 8.56712 0.157107
42 1 -0.00337424 8.72848 4.16291
49 1 3.49564 9.9372 2.87128
12 1 3.46355 8.50068 5.49952
25 1 0.967011 9.90883 6.60114
13 1 5.28132 10.7005 7.60347
22 1 2.58397 10.2381 8.84672
19 1 0.0943467 9.52558 10.0373
4 1 5.02724 10.6335 10.8079
35 1 7.84625 0.252446 0.237577
38 1 5.65976 1.13046 2.35578
20 1 8.84255 1.35886 3.96933
17 1 6.26573 0.988151 5.54415
27 1 11.1393 1.78926 5.76679
10 1 8.53145 1.41743 7.20495
29 1 10.3284 0.558389 8.92701
58 1 8.24091 2.37493 10.3344
37 1 7.12657 2.82477 1.82225
41 1 10.0682 3.16581 1.49473
45 1 7.00016 4.91602 3.69338
54 1 8.95908 3.79517 4.72274
32 1 10.3595 4.06938 7.59435
64 1 7.20404 3.39377 8.01123
50 1 7.80472 5.49478 7.02065
1 1 6.29972 4.25759 10.9787
8 1 9.75854 4.47768 10.1184
23 1 7.51776 6.2417 1.18304
48 1 10.1692 7.88029 1.32799
14 1 6.33717 8.24272 -0.0757404
5 1 10.294 5.59513 2.48489
15 1 5.59711 7.90036 2.55487
46 1 9.01544 6.53072 4.63368
21 1 5.76896 7.19702 5.27754
52 1 10.9673 5.81362 5.36732
61 1 9.5231 7.54783 7.17259
11 1 6.03142 8.07009 8.30993
33 1 6.84904 6.33134 9.24839
6 1 9.83967 11.2165 1.8022
43 1 6.64278 9.77908 3.68993
39 1 8.79224 9.07283 2.64208
36 1 9.88064 9.80475 5.97371
53 1 7.30931 9.71507 6.46227
57 1 7.03354 11.1534 9.02027
34 1 8.88796 9.02588 9.90059
ITEM: TIMESTEP
17000
ITEM: NUMBER OF ATOMS
64
ITEM: BOX BOUNDS pp pp pp
0.0000000000000000e+00 1.1100000000000000e+01
0.0000000000000000e+00 1.1100000000000000e+01
0.0000000000000000e+00 1.1100000000000000e+01
ITEM: ATOMS id type x y z
22 1 2.8167 0.880405 0.389843
47 1 3.98049 0.907769 3.70738
7 1 0.764165 1.32225 3.06692
44 1 1.80356 0.823143 6.21195
13 1 5.50358 0.256919 5.70948
3 1 5.63878 1.67251 8.14416
26 1 0.621272 2.39578 7.60833
25 1 3.38869 0.614768 8.83357
64 1 5.26042 0.567003 11.0044
63 1 0.251221 4.72121 0.279383
18 1 2.32666 3.3943 3.01343
62 1 4.90524 2.93795 6.24449
52 1 0.930502 5.37249 5.66793
16 1 2.7548 3.43234 5.21368
40 1 4.33535 4.63868 8.17881
28 1 4.17473 3.23196 10.8199
56 1 1.96155 3.86151 9.15846
31 1 3.53796 5.50541 0.031762