(written by ASE)

8 atoms
1 atom types

0.0      6.3219854476263997  xlo xhi
0.0      5.9604250407723978  ylo yhi
0.0      5.1618795026617947  zlo zhi
    -2.1073284825421332     -2.1073284825421332     -2.9802125203861993  xy xz yz

Atoms # atomic

     1   1     0.42694475056303616     0.60379105663024379      1.0457967872392797
     2   1    -0.42694475056303616    -0.60379105663024379     -1.0457967872392797
     3   1     0.82649423085302465      2.9802125203861984   3.491742289149013e-16
     4   1    -0.82649423085302465     -2.9802125203861984  -3.491742289149013e-16
     5   1     -1.6803837319790971     0.28252414693261158      2.5809397513308974
     6   1      1.6803837319790971    -0.28252414693261158     -2.5809397513308974
     7   1      2.5342732331051696    -0.88631520356285542      1.5351429640916177
     8   1     -2.5342732331051696     0.88631520356285542     -1.5351429640916177
