(written by ASE)

2 atoms
1 atom types

0.0      3.0499999999999989  xlo xhi
0.0      2.6413774815425368  ylo yhi
0.0      4.9806291436591268  zlo zhi
    -1.5249999999999995                       0                       0  xy xz yz

Atoms # atomic

     1   1                       0                       0                       0
     2   1 -9.1593399531575434e-17      1.7609183210283579      2.4903145718295634
