(written by ASE)

1 atoms
1 atom types

0.0      3.2526911934581171  xlo xhi
0.0      2.8169132042006533  ylo yhi
0.0      2.6558112382722769  zlo zhi
     1.6263455967290585      1.6263455967290585     0.93897106806688446  xy xz yz

Atoms # atomic

     1   1                       0                       0                       0
