(written by ASE)

4 atoms
1 atom types

0.0      3.7999999999999994  xlo xhi
0.0      3.2908965343808667  ylo yhi
0.0      6.2684799999999985  zlo zhi
    -1.8999999999999995                       0                       0  xy xz yz

Atoms # atomic

     1   1  7.0027950694706757e-17      2.1939310229205775     0.39372322879999994
     2   1      1.8999999999999997      1.0969655114602888      3.5279632287999996
     3   1  7.0027950694706757e-17      2.1939310229205775      2.7405167711999989
     4   1      1.8999999999999997      1.0969655114602888    -0.39372322879999994
