(written by ASE)

1 atoms
1 atom types

0.0      3.3234018715767717  xlo xhi
0.0      2.8781504477702327  ylo yhi
0.0      2.7135462651912396  zlo zhi
     1.6617009357883856      1.6617009357883856     0.95938348259007766  xy xz yz

Atoms # atomic

     1   1                       0                       0                       0
