(written by ASE)

4 atoms
1 atom types

0.0      3.9999999999999982  xlo xhi
0.0      3.4641016151377531  ylo yhi
0.0       6.598399999999998  zlo zhi
    -1.9999999999999989                       0                       0  xy xz yz

Atoms # atomic

     1   1  1.9714913771185635e-16      2.3094010767585029     0.41444550399999991
     2   1      1.9999999999999996      1.1547005383792512      3.7136455039999992
     3   1  1.9714913771185635e-16      2.3094010767585029      2.8847544959999989
     4   1      1.9999999999999996      1.1547005383792512    -0.41444550399999991
