(written by ASE)

2 atoms
1 atom types

0.0      2.8999999999999995  xlo xhi
0.0      2.5114736709748713  ylo yhi
0.0      4.7356801693808102  zlo zhi
    -1.4499999999999997                       0                       0  xy xz yz

Atoms # atomic

     1   1                       0                       0                       0
     2   1  1.6653345369377338e-17       1.674315780649914      2.3678400846904051
