(written by ASE)

2 atoms
1 atom types

0.0      4.7999999999999989  xlo xhi
0.0      4.7999999999999989  ylo yhi
0.0      1.3264799999999999  zlo zhi
                      0      2.3999999999999995      2.3999999999999995  xy xz yz

Atoms # atomic

     1   1                       0     -1.1999999999999997     0.33161999999999986
     2   1                       0      1.1999999999999997    -0.33161999999999986
