(written by ASE)

2 atoms
1 atom types

0.0      2.7000000000000002  xlo xhi
0.0      2.3382685902179845  ylo yhi
0.0      4.4090815370097207  zlo zhi
    -1.3500000000000001                       0                       0  xy xz yz

Atoms # atomic

     1   1                       0                       0                       0
     2   1  1.2952601953960163e-17      1.5588457268119895      2.2045407685048604
