(written by ASE)

4 atoms
1 atom types

0.0      4.3999999999999968  xlo xhi
0.0      3.8105117766515275  ylo yhi
0.0      7.2582399999999945  zlo zhi
     -2.199999999999998                       0                       0  xy xz yz

Atoms # atomic

     1   1  5.8827931785258729e-17      2.5403411844343515     0.45589005439999969
     2   1      2.1999999999999984      1.2701705922171753       4.085010054399997
     3   1  5.8827931785258729e-17      2.5403411844343515      3.1732299455999975
     4   1      2.1999999999999984      1.2701705922171753    -0.45589005439999969
