(written by ASE)

2 atoms
1 atom types

0.0      5.7999999999999954  xlo xhi
0.0      5.7999999999999954  ylo yhi
0.0                 1.60283  zlo zhi
                      0      2.8999999999999972      2.8999999999999972  xy xz yz

Atoms # atomic

     1   1                       0     -1.4499999999999988     0.40070749999999905
     2   1                       0      1.4499999999999988    -0.40070749999999905
