(written by ASE)

2 atoms
1 atom types

0.0      2.7999999999999998  xlo xhi
0.0      2.4248711305964279  ylo yhi
0.0      4.5723808531952654  zlo zhi
    -1.3999999999999999                       0                       0  xy xz yz

Atoms # atomic

     1   1                       0                       0                       0
     2   1  1.4802973661668751e-17      1.6165807537309518      2.2861904265976327
