(written by ASE)

2 atoms
1 atom types

0.0      3.0999999999999988  xlo xhi
0.0      2.6846787517317585  ylo yhi
0.0      5.0622788017518996  zlo zhi
    -1.5499999999999994                       0                       0  xy xz yz

Atoms # atomic

     1   1                       0                       0                       0
     2   1  -9.066821367772114e-17       1.789785834487839      2.5311394008759498
