(written by ASE)

1 atoms
1 atom types

0.0      3.0052038200428259  xlo xhi
0.0      2.6025828517071257  ylo yhi
0.0      2.4537386440559086  zlo zhi
     1.5026019100214127      1.5026019100214127      0.8675276172357087  xy xz yz

Atoms # atomic

     1   1                       0                       0                       0
