(written by ASE)

2 atoms
1 atom types

0.0      4.5999999999999996  xlo xhi
0.0      4.5999999999999996  ylo yhi
0.0                 1.27121  zlo zhi
                      0      2.2999999999999998      2.2999999999999998  xy xz yz

Atoms # atomic

     1   1                       0     -1.1499999999999999     0.31780249999999988
     2   1                       0      1.1499999999999999    -0.31780249999999988
