(written by ASE)

4 atoms
1 atom types

0.0      4.1999999999999975  xlo xhi
0.0      3.6373066958946403  ylo yhi
0.0      6.9283199999999958  zlo zhi
    -2.0999999999999983                       0                       0  xy xz yz

Atoms # atomic

     1   1  -3.854491894521594e-17      2.4248711305964266     0.43516777919999977
     2   1      2.0999999999999988      1.2124355652982133      3.8993277791999978
     3   1  -3.854491894521594e-17      2.4248711305964266       3.028992220799998
     4   1      2.0999999999999988      1.2124355652982133    -0.43516777919999977
