(written by ASE)

1 atoms
1 atom types

0.0      2.9011851026778683  xlo xhi
0.0      2.7352635461078814  ylo yhi
0.0      2.3688077169749335  zlo zhi
   -0.96706170089262278    -0.96706170089262278     -1.3676317730539405  xy xz yz

Atoms # atomic

     1   1                       0                       0                       0
