(written by ASE)

1 atoms
1 atom types

0.0      2.8637824638055167  xlo xhi
0.0      2.4801083645679673  ylo yhi
0.0      2.3382685902179836  zlo zhi
     1.4318912319027586      1.4318912319027586     0.82670278818932219  xy xz yz

Atoms # atomic

     1   1                       0                       0                       0
