LAMMPS (2 Aug 2023 - Update 3)
OMP_NUM_THREADS environment is not set. Defaulting to 1 thread. (src/comm.cpp:98)
  using 1 OpenMP thread(s) per MPI task
Lattice spacing in x,y,z = 5.653 5.653 5.653
Created triclinic box = (0 0 0) to (11.306 16.959 22.612) with tilt (0 0 0)
  1 by 1 by 3 MPI processor grid
Created 192 atoms
  using lattice units in triclinic box = (0 0 0) to (11.306 16.959 22.612) with tilt (0 0 0)
  create_atoms CPU = 0.000 seconds
System init for write_data ...
WARNING: Communication cutoff is 0.0. No ghost atoms will be generated. Atoms may get lost. (src/comm_brick.cpp:210)
Reading sw potential file /scratch/phys/t30429_nume-dft-ml/04-Ruoyan/00-MLP/04-short_range/ilearn/ilearn/potentials/params/SW/Ge.sw with DATE: 2025-10-10
Neighbor list info ...
  update: every = 1 steps, delay = 0 steps, check = yes
  max neighbors/atom: 2000, page size: 100000
  master list distance cutoff = 4.9258
  ghost atom cutoff = 4.9258
  1 neighbor lists, perpetual/occasional/extra = 1 0 0
  (1) pair sw, perpetual
      attributes: full, newton on
      pair build: full/nsq
      stencil: none
      bin: none
Setting up cg style minimization ...
  Unit style    : metal
  Current step  : 0
WARNING: Energy due to 3 extra global DOFs will be included in minimizer energies
 (src/min.cpp:228)
Per MPI rank memory allocation (min/avg/max) = 4.178 | 4.178 | 4.178 Mbytes
   Step          Temp          PotEng         Press           Pxx            Pyy            Pzz            Pxy            Pxz            Pyz             Lx             Ly             Lz           Volume          Fmax          Fnorm     
         0   0             -606.7199       216.01154      216.01154      216.01154      216.01154      2.8677057e-10  1.1283083e-09 -1.8527136e-10  11.306         16.959         22.612         4335.5899      8.031482e-14   7.4788619e-13
         1   0             -606.72         19.382033      19.382033      19.382033      19.382033      3.5573577e-10  1.3552255e-09 -1.9739931e-10  11.307131      16.960696      22.614261      4336.8907      9.3080803e-14  8.9756404e-13
         2   0             -606.72        -0.0050471107  -0.0050471107  -0.0050471107  -0.0050471107  -5.1880688e-11  1.2876529e-09 -2.9714586e-10  11.307242      16.960863      22.614484      4337.0191      9.8991302e-14  8.2417403e-13
         3   0             -606.72        -1.991396e-07  -1.9912036e-07 -1.9917872e-07 -1.9911973e-07 -3.8798521e-10  9.6725504e-10 -3.2932951e-10  11.307242      16.960863      22.614484      4337.019       7.9338053e-14  7.2825059e-13
         4   0             -606.72        -2.0998492e-11 -1.3784987e-11 -3.2956803e-11 -1.6253687e-11 -4.336788e-10   1.2003861e-09 -5.4693717e-10  11.307242      16.960863      22.614484      4337.019       9.2606392e-14  8.7330588e-13
Loop time of 0.000985924 on 3 procs for 4 steps with 192 atoms

99.4% CPU use with 3 MPI tasks x 1 OpenMP threads

Minimization stats:
  Stopping criterion = force tolerance
  Energy initial, next-to-last, final = 
     -606.719903670015  -606.719999988425  -606.719999988425
  Force two-norm initial, final = 1.0124543 8.7974304e-13
  Force max component initial, final = 0.58454075 9.2606392e-14
  Final line search alpha, max atom move = 1 9.2606392e-14
  Iterations, force evaluations = 4 7

MPI task timing breakdown:
Section |  min time  |  avg time  |  max time  |%varavg| %total
---------------------------------------------------------------
Pair    | 0.00034269 | 0.00035826 | 0.00038509 |   0.0 | 36.34
Neigh   | 0          | 0          | 0          |   0.0 |  0.00
Comm    | 0.00026702 | 0.00030387 | 0.00032388 |   0.0 | 30.82
Output  | 9.3061e-05 | 9.4016e-05 | 9.4589e-05 |   0.0 |  9.54
Modify  | 0          | 0          | 0          |   0.0 |  0.00
Other   |            | 0.0002298  |            |       | 23.31

Nlocal:             64 ave          72 max          60 min
Histogram: 2 0 0 0 0 0 0 0 0 1
Nghost:        375.333 ave         400 max         357 min
Histogram: 1 0 1 0 0 0 0 0 0 1
Neighs:              0 ave           0 max           0 min
Histogram: 3 0 0 0 0 0 0 0 0 0
FullNghs:         1792 ave        2016 max        1680 min
Histogram: 2 0 0 0 0 0 0 0 0 1

Total # of neighbors = 5376
Ave neighs/atom = 28
Neighbor list builds = 0
Dangerous builds = 0
Displacing atoms ...
System init for write_restart ...
OMP_NUM_THREADS environment is not set. Defaulting to 1 thread. (src/comm.cpp:98)
  using 1 OpenMP thread(s) per MPI task

The 'box' command has been removed and will be ignored

Reading restart file ...
  restart file = 2 Aug 2023, LAMMPS = 2 Aug 2023
  restoring atom style atomic from restart
  triclinic box = (-0.00062105231 -0.00093157847 -0.0012421046) to (11.306621 16.959932 22.613242) with tilt (0 0 0)
  1 by 1 by 3 MPI processor grid
  pair style sw stores no restart info
  192 atoms
  read_restart CPU = 0.001 seconds
Reading sw potential file /scratch/phys/t30429_nume-dft-ml/04-Ruoyan/00-MLP/04-short_range/ilearn/ilearn/potentials/params/SW/Ge.sw with DATE: 2025-10-10
Changing box ...
  triclinic box = (-0.00062105231 -0.00093157847 -0.0012421046) to (11.30661 16.959932 22.613242) with tilt (0 0 0)
  triclinic box = (-0.00062105231 -0.00093157847 -0.0012421046) to (11.30661 16.959932 22.613242) with tilt (0 0 0)
  triclinic box = (-0.00062105231 -0.00093157847 -0.0012421046) to (11.30661 16.959932 22.613242) with tilt (0 0 0)
Neighbor list info ...
  update: every = 1 steps, delay = 0 steps, check = yes
  max neighbors/atom: 2000, page size: 100000
  master list distance cutoff = 4.9258
  ghost atom cutoff = 4.9258
  1 neighbor lists, perpetual/occasional/extra = 1 0 0
  (1) pair sw, perpetual
      attributes: full, newton on
      pair build: full/nsq
      stencil: none
      bin: none
Setting up cg style minimization ...
  Unit style    : metal
  Current step  : 4
Per MPI rank memory allocation (min/avg/max) = 4.178 | 4.178 | 4.178 Mbytes
   Step          Temp          PotEng         Press           Pxx            Pyy            Pzz            Pxy            Pxz            Pyz             Lx             Ly             Lz           Volume          Fmax          Fnorm     
         4   0             -606.72         0.65515869     0.97813464     0.49366981     0.49367161    -0.18320777     0.2689654      0.18226037     11.307231      16.960863      22.614484      4337.0147      0.00024082517  0.002005014  
         5   0             -606.72         0.65512187     0.97809673     0.49363417     0.49363469     0.043605295   -0.064024266   -0.043382453    11.307231      16.960863      22.614484      4337.0147      4.8372008e-05  0.00037512038
         6   0             -606.72         0.65512115     0.97809605     0.49363364     0.49363374    -0.041302536    0.060645336    0.041093259    11.307231      16.960863      22.614484      4337.0147      2.456303e-05   0.00020528936
         7   0             -606.72         0.65512127     0.97809615     0.49363382     0.49363385     0.041473263   -0.060896509   -0.041263465    11.307231      16.960863      22.614484      4337.0147      1.6850487e-05  0.00014226368
         8   0             -606.72         0.65512129     0.97809617     0.49363388     0.49363381    -0.02912622     0.042767408    0.028979133    11.307231      16.960863      22.614484      4337.0147      9.2533268e-06  8.2727449e-05
         9   0             -606.72         0.65512128     0.97809615     0.49363385     0.49363383     0.021406791   -0.031432675   -0.021298754    11.307231      16.960863      22.614484      4337.0147      6.3297402e-06  5.1522191e-05
        10   0             -606.72         0.65512129     0.97809616     0.49363385     0.49363384    -0.015984253    0.023470571    0.015903671    11.307231      16.960863      22.614484      4337.0147      5.388765e-06   3.624676e-05 
        11   0             -606.72         0.65512129     0.97809617     0.49363385     0.49363384     0.010418423   -0.015297997   -0.010365969    11.307231      16.960863      22.614484      4337.0147      2.6642196e-06  2.3212894e-05
        12   0             -606.72         0.65512129     0.97809617     0.49363385     0.49363385    -0.0061750671   0.0090672549   0.0061440285   11.307231      16.960863      22.614484      4337.0147      2.2357611e-06  1.5080625e-05
        13   0             -606.72         0.65512129     0.97809617     0.49363385     0.49363385     0.0035859288  -0.0052654663  -0.0035679488   11.307231      16.960863      22.614484      4337.0147      1.5059046e-06  1.0919151e-05
        14   0             -606.72         0.65512129     0.97809617     0.49363385     0.49363385    -0.002171777    0.0031889936   0.0021609392   11.307231      16.960863      22.614484      4337.0147      1.1904263e-06  8.8699066e-06
        15   0             -606.72         0.65512129     0.97809617     0.49363385     0.49363385     0.0011988975  -0.0017604557  -0.0011929767   11.307231      16.960863      22.614484      4337.0147      8.853326e-07   6.9777276e-06
        16   0             -606.72         0.65512129     0.97809617     0.49363385     0.49363385    -0.00070637559  0.0010372642   0.00070295446  11.307231      16.960863      22.614484      4337.0147      6.9802801e-07  5.3177621e-06
        17   0             -606.72         0.65512129     0.97809618     0.49363385     0.49363385     0.0005118841  -0.00075168901 -0.00050947444  11.307231      16.960863      22.614484      4337.0147      6.4606796e-07  4.8292114e-06
        18   0             -606.72         0.65512129     0.97809618     0.49363385     0.49363385    -0.00030643497  0.0004500235   0.00030508365  11.307231      16.960863      22.614484      4337.0147      4.658174e-07   3.7500499e-06
        19   0             -606.72         0.65512129     0.97809618     0.49363385     0.49363385     0.00018700377 -0.00027465194 -0.00018624611  11.307231      16.960863      22.614484      4337.0147      3.6318536e-07  2.9699732e-06
        20   0             -606.72         0.65512129     0.97809618     0.49363385     0.49363385    -9.1905413e-05  0.00013501216  9.1624276e-05  11.307231      16.960863      22.614484      4337.0147      2.9760324e-07  2.3592257e-06
        21   0             -606.72         0.65512129     0.97809618     0.49363385     0.49363385     5.5381364e-05 -8.1392871e-05 -5.5319141e-05  11.307231      16.960863      22.614484      4337.0147      2.4017187e-07  1.8619891e-06
        22   0             -606.72         0.65512129     0.97809618     0.49363385     0.49363385    -2.7320292e-05  4.0184928e-05  2.7387044e-05  11.307231      16.960863      22.614484      4337.0147      1.7715032e-07  1.4020356e-06
        23   0             -606.72         0.65512129     0.97809618     0.49363385     0.49363385     1.3717002e-05 -2.0221929e-05 -1.3887232e-05  11.307231      16.960863      22.614484      4337.0147      1.439811e-07   1.1813006e-06
        24   0             -606.72         0.65512129     0.97809618     0.49363385     0.49363385    -7.9008456e-06  1.1717185e-05  8.2057351e-06  11.307231      16.960863      22.614484      4337.0147      1.3413706e-07  9.9679425e-07
        25   0             -606.72         0.65512129     0.97809618     0.49363385     0.49363385     2.8779323e-06 -4.3296444e-06 -3.1726635e-06  11.307231      16.960863      22.614484      4337.0147      8.2910167e-08  6.9006305e-07
        26   0             -606.72         0.65512129     0.97809618     0.49363385     0.49363385    -1.4110854e-06  2.2474225e-06  1.9271449e-06  11.307231      16.960863      22.614484      4337.0147      8.9013423e-08  7.0025984e-07
        27   0             -606.72         0.65512129     0.97809618     0.49363385     0.49363385    -2.1157384e-07  1.3862952e-07 -3.0301195e-07  11.307231      16.960863      22.614484      4337.0147      5.5554082e-08  4.6548791e-07
        28   0             -606.72         0.65512129     0.97809618     0.49363385     0.49363385     8.4887102e-07 -1.067575e-06  -3.1033129e-07  11.307231      16.960863      22.614484      4337.0147      5.2913668e-08  3.3809309e-07
        29   0             -606.72         0.65512129     0.97809618     0.49363385     0.49363385    -1.4829912e-06  1.950577e-06   7.9715752e-07  11.307231      16.960863      22.614484      4337.0147      3.4364801e-08  2.7000456e-07
        30   0             -606.72         0.65512129     0.97809618     0.49363385     0.49363385     1.6316045e-06 -2.1714805e-06 -9.527967e-07   11.307231      16.960863      22.614484      4337.0147      2.2371815e-08  1.8482851e-07
        31   0             -606.72         0.65512129     0.97809618     0.49363385     0.49363385    -1.7947222e-06  2.3997385e-06  1.0815432e-06  11.307231      16.960863      22.614484      4337.0147      1.8938969e-08  1.4630337e-07
        32   0             -606.72         0.65512129     0.97809618     0.49363385     0.49363385     1.7632537e-06 -2.3644413e-06 -1.0831906e-06  11.307231      16.960863      22.614484      4337.0147      1.423009e-08   1.0672098e-07
        33   0             -606.72         0.65512129     0.97809618     0.49363385     0.49363385    -1.3333049e-06  1.7908108e-06  8.2795029e-07  11.307231      16.960863      22.614484      4337.0147      9.1252434e-09  6.2284664e-08
        34   0             -606.72         0.65512129     0.97809618     0.49363385     0.49363385     1.183051e-06  -1.5903203e-06 -7.3878893e-07  11.307231      16.960863      22.614484      4337.0147      6.9925909e-09  4.4272048e-08
        35   0             -606.72         0.65512129     0.97809618     0.49363385     0.49363385    -1.3709716e-06  1.8439647e-06  8.5925863e-07  11.307231      16.960863      22.614484      4337.0147      3.9943899e-09  3.0381046e-08
        36   0             -606.72         0.65512129     0.97809618     0.49363385     0.49363385     1.4981457e-06 -2.0154432e-06 -9.4001005e-07  11.307231      16.960863      22.614484      4337.0147      2.2829356e-09  1.8158098e-08
        37   0             -606.72         0.65512129     0.97809618     0.49363385     0.49363385    -1.5060792e-06  2.0263464e-06  9.4533582e-07  11.307231      16.960863      22.614484      4337.0147      1.8658458e-09  1.2632469e-08
        38   0             -606.72         0.65512129     0.97809618     0.49363385     0.49363385     1.234341e-06  -1.6608263e-06 -7.7493485e-07  11.307231      16.960863      22.614484      4337.0147      1.1971303e-09  7.5328951e-09
        39   0             -606.72         0.65512129     0.97809618     0.49363385     0.49363385    -1.4921963e-06  2.0078976e-06  9.3689685e-07  11.307231      16.960863      22.614484      4337.0147      8.7184052e-10  5.8085712e-09
        40   0             -606.72         0.65512129     0.97809618     0.49363385     0.49363385     9.9083577e-07 -1.3333759e-06 -6.2213406e-07  11.307231      16.960863      22.614484      4337.0147      4.5836257e-10  3.2527417e-09
        41   0             -606.72         0.65512129     0.97809618     0.49363385     0.49363385    -9.256949e-07   1.2458116e-06  5.8127913e-07  11.307231      16.960863      22.614484      4337.0147      2.6471999e-10  2.1969079e-09
        42   0             -606.72         0.65512129     0.97809618     0.49363385     0.49363385     1.0497587e-06 -1.4128235e-06 -6.5925265e-07  11.307231      16.960863      22.614484      4337.0147      2.3940643e-10  1.822437e-09 
        43   0             -606.72         0.65512129     0.97809618     0.49363385     0.49363385    -5.999586e-07   8.0744019e-07  3.767816e-07   11.307231      16.960863      22.614484      4337.0147      1.3909913e-10  1.0540678e-09
        44   0             -606.72         0.65512129     0.97809618     0.49363385     0.49363385     4.3552531e-07 -5.8611532e-07 -2.7350943e-07  11.307231      16.960863      22.614484      4337.0147      1.0295498e-10  8.0176836e-10
        45   0             -606.72         0.65512129     0.97809618     0.49363385     0.49363385    -2.4023477e-07  3.2326965e-07  1.5087367e-07  11.307231      16.960863      22.614484      4337.0147      7.8866906e-11  6.0695639e-10
        46   0             -606.72         0.65512129     0.97809618     0.49363385     0.49363385     1.3275929e-07 -1.7859167e-07 -8.335898e-08   11.307231      16.960863      22.614484      4337.0147      6.6015175e-11  4.6107983e-10
        47   0             -606.72         0.65512129     0.97809618     0.49363385     0.49363385    -3.9863481e-08  5.3505482e-08  2.4991247e-08  11.307231      16.960863      22.614484      4337.0147      4.8352772e-11  2.9119779e-10
        48   0             -606.72         0.65512129     0.97809618     0.49363385     0.49363385     2.6841671e-08 -3.5696073e-08 -1.6718677e-08  11.307231      16.960863      22.614484      4337.0147      4.8394471e-11  2.7033062e-10
        49   0             -606.72         0.65512129     0.97809618     0.49363385     0.49363385    -1.0487552e-08  1.3698282e-08  6.4494202e-09  11.307231      16.960863      22.614484      4337.0147      1.9771264e-11  1.6217933e-10
        50   0             -606.72         0.65512129     0.97809618     0.49363385     0.49363385     5.2159844e-09 -6.5287951e-09 -3.0935703e-09  11.307231      16.960863      22.614484      4337.0147      1.6456443e-11  1.1959381e-10
        51   0             -606.72         0.65512129     0.97809618     0.49363385     0.49363385    -4.3470448e-09  5.0303548e-09  2.4258893e-09  11.307231      16.960863      22.614484      4337.0147      1.6266141e-11  1.1167143e-10
        52   0             -606.72         0.65512129     0.97809618     0.49363385     0.49363385     1.6555052e-09 -1.6079521e-09 -8.0639857e-10  11.307231      16.960863      22.614484      4337.0147      8.5079935e-12  6.39078e-11  
Loop time of 0.00893127 on 3 procs for 48 steps with 192 atoms

87.0% CPU use with 3 MPI tasks x 1 OpenMP threads

Minimization stats:
  Stopping criterion = force tolerance
  Energy initial, next-to-last, final = 
     -606.719999875225  -606.719999987099  -606.719999987099
  Force two-norm initial, final = 0.002005014 6.39078e-11
  Force max component initial, final = 0.00024082517 8.5079935e-12
  Final line search alpha, max atom move = 1 8.5079935e-12
  Iterations, force evaluations = 48 96

MPI task timing breakdown:
Section |  min time  |  avg time  |  max time  |%varavg| %total
---------------------------------------------------------------
Pair    | 0.00352    | 0.0040031  | 0.0043322  |   0.6 | 44.82
Neigh   | 0          | 0          | 0          |   0.0 |  0.00
Comm    | 0.0015866  | 0.0018579  | 0.0023559  |   0.8 | 20.80
Output  | 0.0010282  | 0.0014185  | 0.0021885  |   1.4 | 15.88
Modify  | 0          | 0          | 0          |   0.0 |  0.00
Other   |            | 0.001652   |            |       | 18.49

Nlocal:             64 ave          66 max          60 min
Histogram: 1 0 0 0 0 0 0 0 0 2
Nghost:        375.333 ave         400 max         363 min
Histogram: 2 0 0 0 0 0 0 0 0 1
Neighs:              0 ave           0 max           0 min
Histogram: 3 0 0 0 0 0 0 0 0 0
FullNghs:         1792 ave        1848 max        1680 min
Histogram: 1 0 0 0 0 0 0 0 0 2

Total # of neighbors = 5376
Ave neighs/atom = 28
Neighbor list builds = 0
Dangerous builds = 0
OMP_NUM_THREADS environment is not set. Defaulting to 1 thread. (src/comm.cpp:98)
  using 1 OpenMP thread(s) per MPI task

The 'box' command has been removed and will be ignored

Reading restart file ...
  restart file = 2 Aug 2023, LAMMPS = 2 Aug 2023
  restoring atom style atomic from restart
  triclinic box = (-0.00062105231 -0.00093157847 -0.0012421046) to (11.306621 16.959932 22.613242) with tilt (0 0 0)
  1 by 1 by 3 MPI processor grid
  pair style sw stores no restart info
  192 atoms
  read_restart CPU = 0.001 seconds
Reading sw potential file /scratch/phys/t30429_nume-dft-ml/04-Ruoyan/00-MLP/04-short_range/ilearn/ilearn/potentials/params/SW/Ge.sw with DATE: 2025-10-10
Changing box ...
  triclinic box = (-0.00062105231 -0.00093157847 -0.0012421046) to (11.306632 16.959932 22.613242) with tilt (0 0 0)
  triclinic box = (-0.00062105231 -0.00093157847 -0.0012421046) to (11.306632 16.959932 22.613242) with tilt (0 0 0)
  triclinic box = (-0.00062105231 -0.00093157847 -0.0012421046) to (11.306632 16.959932 22.613242) with tilt (0 0 0)
Neighbor list info ...
  update: every = 1 steps, delay = 0 steps, check = yes
  max neighbors/atom: 2000, page size: 100000
  master list distance cutoff = 4.9258
  ghost atom cutoff = 4.9258
  1 neighbor lists, perpetual/occasional/extra = 1 0 0
  (1) pair sw, perpetual
      attributes: full, newton on
      pair build: full/nsq
      stencil: none
      bin: none
Setting up cg style minimization ...
  Unit style    : metal
  Current step  : 4
Per MPI rank memory allocation (min/avg/max) = 4.178 | 4.178 | 4.178 Mbytes
   Step          Temp          PotEng         Press           Pxx            Pyy            Pzz            Pxy            Pxz            Pyz             Lx             Ly             Lz           Volume          Fmax          Fnorm     
         4   0             -606.72        -0.65508156    -0.97805555    -0.49359547    -0.49359367    -0.18320683     0.26896402     0.18225948     11.307253      16.960863      22.614484      4337.0234      0.00024082437  0.0020050086 
         5   0             -606.72        -0.65511838    -0.97809345    -0.49363111    -0.49363059     0.043605186   -0.064024107   -0.043382185    11.307253      16.960863      22.614484      4337.0234      4.8371898e-05  0.00037511962
         6   0             -606.72        -0.6551191     -0.97809413    -0.49363164    -0.49363154    -0.041302487    0.060645264    0.041092937    11.307253      16.960863      22.614484      4337.0234      2.4563044e-05  0.00020528905
         7   0             -606.72        -0.65511898    -0.97809404    -0.49363146    -0.49363143     0.041473181   -0.060896389   -0.041262977    11.307253      16.960863      22.614484      4337.0234      1.6850447e-05  0.00014226333
         8   0             -606.72        -0.65511896    -0.97809401    -0.4936314     -0.49363147    -0.029126165    0.042767327    0.028978651    11.307253      16.960863      22.614484      4337.0234      9.2532946e-06  8.2727172e-05
         9   0             -606.72        -0.65511897    -0.97809403    -0.49363143    -0.49363145     0.021406745   -0.031432606   -0.021298271    11.307253      16.960863      22.614484      4337.0234      6.3297192e-06  5.1522013e-05
        10   0             -606.72        -0.65511896    -0.97809402    -0.49363143    -0.49363144    -0.015984228    0.023470535    0.015903207    11.307253      16.960863      22.614484      4337.0234      5.3887443e-06  3.6246617e-05
        11   0             -606.72        -0.65511896    -0.97809401    -0.49363143    -0.49363144     0.010418428   -0.015298003   -0.010365574    11.307253      16.960863      22.614484      4337.0234      2.6642038e-06  2.3212768e-05
        12   0             -606.72        -0.65511896    -0.97809402    -0.49363144    -0.49363144    -0.0061751029   0.0090673068   0.0061437448   11.307253      16.960863      22.614484      4337.0234      2.2357501e-06  1.5080558e-05
        13   0             -606.72        -0.65511896    -0.97809401    -0.49363144    -0.49363144     0.0035859733  -0.0052655313  -0.0035677267   11.307253      16.960863      22.614484      4337.0234      1.5058887e-06  1.0919112e-05
        14   0             -606.72        -0.65511896    -0.97809401    -0.49363144    -0.49363144    -0.0021718319   0.0031890738   0.0021607437   11.307253      16.960863      22.614484      4337.0234      1.1904199e-06  8.8698843e-06
        15   0             -606.72        -0.65511896    -0.97809401    -0.49363144    -0.49363144     0.0011989565  -0.0017605416  -0.0011927858   11.307253      16.960863      22.614484      4337.0234      8.8531996e-07  6.9777076e-06
        16   0             -606.72        -0.65511896    -0.97809401    -0.49363144    -0.49363144    -0.0007064384   0.0010373553   0.00070275174  11.307253      16.960863      22.614484      4337.0234      6.9802246e-07  5.3177455e-06
        17   0             -606.72        -0.65511896    -0.97809401    -0.49363144    -0.49363143     0.00051196031 -0.00075179934 -0.00050923268  11.307253      16.960863      22.614484      4337.0234      6.4607345e-07  4.8291963e-06
        18   0             -606.72        -0.65511896    -0.97809401    -0.49363144    -0.49363144    -0.00030652007  0.00045014638  0.00030481637  11.307253      16.960863      22.614484      4337.0234      4.6581274e-07  3.7500335e-06
        19   0             -606.72        -0.65511896    -0.97809401    -0.49363144    -0.49363144     0.00018708443 -0.00027476818 -0.0001859912   11.307253      16.960863      22.614484      4337.0234      3.6318759e-07  2.9699547e-06
        20   0             -606.72        -0.65511896    -0.97809401    -0.49363144    -0.49363144    -9.1984873e-05  0.00013512651  9.1375755e-05  11.307253      16.960863      22.614484      4337.0234      2.9760587e-07  2.3592107e-06
        21   0             -606.72        -0.65511896    -0.97809401    -0.49363144    -0.49363144     5.5475918e-05 -8.152887e-05  -5.5023765e-05  11.307253      16.960863      22.614484      4337.0234      2.4017491e-07  1.861977e-06 
        22   0             -606.72        -0.65511896    -0.97809401    -0.49363144    -0.49363144    -2.7409321e-05  4.0312834e-05  2.7109128e-05  11.307253      16.960863      22.614484      4337.0234      1.7714641e-07  1.4020301e-06
        23   0             -606.72        -0.65511896    -0.97809401    -0.49363144    -0.49363144     1.3821079e-05 -2.0371331e-05 -1.3561955e-05  11.307253      16.960863      22.614484      4337.0234      1.4397855e-07  1.1812949e-06
        24   0             -606.72        -0.65511896    -0.97809401    -0.49363144    -0.49363144    -8.0506831e-06  1.1932104e-05  7.7375896e-06  11.307253      16.960863      22.614484      4337.0234      1.3413026e-07  9.9678859e-07
        25   0             -606.72        -0.65511896    -0.97809401    -0.49363144    -0.49363144     3.0123428e-06 -4.5224145e-06 -2.7526814e-06  11.307253      16.960863      22.614484      4337.0234      8.2923845e-08  6.9005857e-07
        26   0             -606.72        -0.65511896    -0.97809401    -0.49363144    -0.49363144    -1.6383241e-06  2.5735919e-06  1.2165228e-06  11.307253      16.960863      22.614484      4337.0234      8.8990321e-08  7.0025474e-07
        27   0             -606.72        -0.65511896    -0.97809401    -0.49363144    -0.49363144     1.133823e-08  -1.8161867e-07  3.9456989e-07  11.307253      16.960863      22.614484      4337.0234      5.5546782e-08  4.6548104e-07
        28   0             -606.72        -0.65511896    -0.97809401    -0.49363144    -0.49363144     6.1700443e-07 -7.3434696e-07 -1.036134e-06   11.307253      16.960863      22.614484      4337.0234      5.2920251e-08  3.380887e-07 
        29   0             -606.72        -0.65511896    -0.97809401    -0.49363144    -0.49363144    -1.188608e-06   1.5275005e-06  1.7187695e-06  11.307253      16.960863      22.614484      4337.0234      3.4355296e-08  2.7000099e-07
        30   0             -606.72        -0.65511896    -0.97809401    -0.49363144    -0.49363144     1.3406299e-06 -1.753294e-06  -1.8639079e-06  11.307253      16.960863      22.614484      4337.0234      2.235891e-08   1.8482635e-07
        31   0             -606.72        -0.65511896    -0.97809401    -0.49363144    -0.49363144    -1.4892351e-06  1.9606695e-06  2.038165e-06   11.307253      16.960863      22.614484      4337.0234      1.8948225e-08  1.4630148e-07
        32   0             -606.72        -0.65511896    -0.97809401    -0.49363144    -0.49363144     1.4720913e-06 -1.9459485e-06 -1.9948527e-06  11.307253      16.960863      22.614484      4337.0234      1.4220643e-08  1.0671902e-07
        33   0             -606.72        -0.65511896    -0.97809401    -0.49363144    -0.49363144    -1.1169928e-06  1.4799123e-06  1.5051458e-06  11.307253      16.960863      22.614484      4337.0234      9.1319124e-09  6.228365e-08 
        34   0             -606.72        -0.65511896    -0.97809401    -0.49363144    -0.49363144     9.9297146e-07 -1.3170116e-06 -1.3339951e-06  11.307253      16.960863      22.614484      4337.0234      6.9864595e-09  4.4271364e-08
        35   0             -606.72        -0.65511896    -0.97809401    -0.49363144    -0.49363144    -1.1521064e-06  1.5290819e-06  1.5447642e-06  11.307253      16.960863      22.614484      4337.0234      4.0012664e-09  3.0380689e-08
        36   0             -606.72        -0.65511896    -0.97809401    -0.49363144    -0.49363144     1.2594315e-06 -1.6718434e-06 -1.687731e-06   11.307253      16.960863      22.614484      4337.0234      2.2752494e-09  1.815787e-08 
        37   0             -606.72        -0.65511896    -0.97809401    -0.49363144    -0.49363144    -1.2661616e-06  1.6809713e-06  1.6965745e-06  11.307253      16.960863      22.614484      4337.0234      1.8581042e-09  1.2632338e-08
        38   0             -606.72        -0.65511896    -0.97809401    -0.49363144    -0.49363144     1.0376961e-06 -1.3777367e-06 -1.3903772e-06  11.307253      16.960863      22.614484      4337.0234      1.1907487e-09  7.5329107e-09
        39   0             -606.72        -0.65511896    -0.97809401    -0.49363144    -0.49363144    -1.2542872e-06  1.6653804e-06  1.6805946e-06  11.307253      16.960863      22.614484      4337.0234      8.6412343e-10  5.8086284e-09
        40   0             -606.72        -0.65511896    -0.97809401    -0.49363144    -0.49363144     8.3266939e-07 -1.105623e-06  -1.1157282e-06  11.307253      16.960863      22.614484      4337.0234      4.5112773e-10  3.252843e-09 
        41   0             -606.72        -0.65511896    -0.97809401    -0.49363144    -0.49363144    -7.7758549e-07  1.0325799e-06  1.0420452e-06  11.307253      16.960863      22.614484      4337.0234      2.793143e-10   2.1970515e-09
        42   0             -606.72        -0.65511896    -0.97809401    -0.49363144    -0.49363144     8.8108689e-07 -1.1700562e-06 -1.1808516e-06  11.307253      16.960863      22.614484      4337.0234      2.3173179e-10  1.8225963e-09
        43   0             -606.72        -0.65511896    -0.97809401    -0.49363144    -0.49363144    -5.0295588e-07  6.6793221e-07  6.741547e-07   11.307253      16.960863      22.614484      4337.0234      1.4462487e-10  1.0542137e-09
        44   0             -606.72        -0.65511896    -0.97809401    -0.49363144    -0.49363144     3.6456915e-07 -4.8414848e-07 -4.8872224e-07  11.307253      16.960863      22.614484      4337.0234      1.0312661e-10  8.0172075e-10
        45   0             -606.72        -0.65511896    -0.97809401    -0.49363144    -0.49363144    -2.0092998e-07  2.6671262e-07  2.6929463e-07  11.307253      16.960863      22.614484      4337.0234      7.7665395e-11  6.0690303e-10
        46   0             -606.72        -0.65511896    -0.97809401    -0.49363144    -0.49363144     1.1103096e-07 -1.4728434e-07 -1.4872461e-07  11.307253      16.960863      22.614484      4337.0234      6.5330772e-11  4.6105611e-10
        47   0             -606.72        -0.65511896    -0.97809401    -0.49363144    -0.49363144    -3.326643e-08   4.4116417e-08  4.4555467e-08  11.307253      16.960863      22.614484      4337.0234      4.8020368e-11  2.9117474e-10
        48   0             -606.72        -0.65511896    -0.97809401    -0.49363144    -0.49363144     2.2226554e-08 -2.944365e-08  -2.975593e-08   11.307253      16.960863      22.614484      4337.0234      4.8148587e-11  2.7031574e-10
        49   0             -606.72        -0.65511896    -0.97809401    -0.49363144    -0.49363144    -8.518622e-09   1.1361175e-08  1.1429125e-08  11.307253      16.960863      22.614484      4337.0234      1.9836251e-11  1.6219218e-10
        50   0             -606.72        -0.65511896    -0.97809401    -0.49363144    -0.49363144     4.0017926e-09 -5.4689003e-09 -5.428882e-09   11.307253      16.960863      22.614484      4337.0234      1.6430908e-11  1.1957099e-10
        51   0             -606.72        -0.65511896    -0.97809401    -0.49363144    -0.49363144    -2.9640645e-09  4.2781687e-09  4.1615627e-09  11.307253      16.960863      22.614484      4337.0234      1.6173252e-11  1.1167016e-10
        52   0             -606.72        -0.65511896    -0.97809401    -0.49363144    -0.49363144     8.3899602e-10 -1.3302069e-09 -1.3024916e-09  11.307253      16.960863      22.614484      4337.0234      8.4875925e-12  6.3924964e-11
Loop time of 0.00809323 on 3 procs for 48 steps with 192 atoms

96.3% CPU use with 3 MPI tasks x 1 OpenMP threads

Minimization stats:
  Stopping criterion = force tolerance
  Energy initial, next-to-last, final = 
     -606.719999875224  -606.719999987099  -606.719999987099
  Force two-norm initial, final = 0.0020050086 6.3924964e-11
  Force max component initial, final = 0.00024082437 8.4875925e-12
  Final line search alpha, max atom move = 1 8.4875925e-12
  Iterations, force evaluations = 48 96

MPI task timing breakdown:
Section |  min time  |  avg time  |  max time  |%varavg| %total
---------------------------------------------------------------
Pair    | 0.0034636  | 0.0039968  | 0.0043234  |   0.6 | 49.38
Neigh   | 0          | 0          | 0          |   0.0 |  0.00
Comm    | 0.0011242  | 0.0014384  | 0.0019992  |   1.0 | 17.77
Output  | 0.0010463  | 0.0012877  | 0.0017598  |   0.9 | 15.91
Modify  | 0          | 0          | 0          |   0.0 |  0.00
Other   |            | 0.00137    |            |       | 16.93

Nlocal:             64 ave          66 max          60 min
Histogram: 1 0 0 0 0 0 0 0 0 2
Nghost:        375.333 ave         400 max         363 min
Histogram: 2 0 0 0 0 0 0 0 0 1
Neighs:              0 ave           0 max           0 min
Histogram: 3 0 0 0 0 0 0 0 0 0
FullNghs:         1792 ave        1848 max        1680 min
Histogram: 1 0 0 0 0 0 0 0 0 2

Total # of neighbors = 5376
Ave neighs/atom = 28
Neighbor list builds = 0
Dangerous builds = 0
OMP_NUM_THREADS environment is not set. Defaulting to 1 thread. (src/comm.cpp:98)
  using 1 OpenMP thread(s) per MPI task

The 'box' command has been removed and will be ignored

Reading restart file ...
  restart file = 2 Aug 2023, LAMMPS = 2 Aug 2023
  restoring atom style atomic from restart
  triclinic box = (-0.00062105231 -0.00093157847 -0.0012421046) to (11.306621 16.959932 22.613242) with tilt (0 0 0)
  1 by 1 by 3 MPI processor grid
  pair style sw stores no restart info
  192 atoms
  read_restart CPU = 0.000 seconds
Reading sw potential file /scratch/phys/t30429_nume-dft-ml/04-Ruoyan/00-MLP/04-short_range/ilearn/ilearn/potentials/params/SW/Ge.sw with DATE: 2025-10-10
Changing box ...
  triclinic box = (-0.00062105231 -0.00093157847 -0.0012421046) to (11.306621 16.959915 22.613242) with tilt (0 0 0)
  triclinic box = (-0.00062105231 -0.00093157847 -0.0012421046) to (11.306621 16.959915 22.613242) with tilt (0 0 0)
Neighbor list info ...
  update: every = 1 steps, delay = 0 steps, check = yes
  max neighbors/atom: 2000, page size: 100000
  master list distance cutoff = 4.9258
  ghost atom cutoff = 4.9258
  1 neighbor lists, perpetual/occasional/extra = 1 0 0
  (1) pair sw, perpetual
      attributes: full, newton on
      pair build: full/nsq
      stencil: none
      bin: none
Setting up cg style minimization ...
  Unit style    : metal
  Current step  : 4
Per MPI rank memory allocation (min/avg/max) = 4.178 | 4.178 | 4.178 Mbytes
   Step          Temp          PotEng         Press           Pxx            Pyy            Pzz            Pxy            Pxz            Pyz             Lx             Ly             Lz           Volume          Fmax          Fnorm     
         4   0             -606.72         0.65515869     0.49367231     0.97813214     0.49367161    -0.18320777     0.26896537     0.18226039     11.307242      16.960846      22.614484      4337.0147      0.00024082502  0.0020050139 
         5   0             -606.72         0.65512187     0.4936344      0.9780965      0.49363469     0.043605294   -0.064024383   -0.043382372    11.307242      16.960846      22.614484      4337.0147      4.8372023e-05  0.00037512034
         6   0             -606.72         0.65512115     0.49363372     0.97809597     0.49363374    -0.041302542    0.060645546    0.041093128    11.307242      16.960846      22.614484      4337.0147      2.4563037e-05  0.00020528937
         7   0             -606.72         0.65512127     0.49363382     0.97809616     0.49363385     0.041473246   -0.060896785   -0.041263245    11.307242      16.960846      22.614484      4337.0147      1.685048e-05   0.00014226368
         8   0             -606.72         0.65512129     0.49363384     0.97809621     0.49363381    -0.029126198    0.04276769     0.028978898    11.307242      16.960846      22.614484      4337.0147      9.2533394e-06  8.2727479e-05
         9   0             -606.72         0.65512128     0.49363382     0.97809618     0.49363383     0.021406729   -0.031432905   -0.021298473    11.307242      16.960846      22.614484      4337.0147      6.3297305e-06  5.1522192e-05
        10   0             -606.72         0.65512129     0.49363383     0.97809618     0.49363384    -0.015984184    0.023470794    0.015903383    11.307242      16.960846      22.614484      4337.0147      5.3887738e-06  3.6246769e-05
        11   0             -606.72         0.65512129     0.49363384     0.97809618     0.49363384     0.010418362   -0.015298201   -0.010365708    11.307242      16.960846      22.614484      4337.0147      2.6642205e-06  2.32129e-05  
        12   0             -606.72         0.65512129     0.49363384     0.97809618     0.49363385    -0.00617502     0.0090674208   0.006143822    11.307242      16.960846      22.614484      4337.0147      2.2357593e-06  1.5080629e-05
        13   0             -606.72         0.65512129     0.49363384     0.97809618     0.49363385     0.0035858895  -0.0052656048  -0.0035677764   11.307242      16.960846      22.614484      4337.0147      1.5058982e-06  1.0919152e-05
        14   0             -606.72         0.65512129     0.49363384     0.97809618     0.49363385    -0.0021717444   0.0031891301   0.0021607816   11.307242      16.960846      22.614484      4337.0147      1.1904229e-06  8.8699103e-06
        15   0             -606.72         0.65512129     0.49363384     0.97809618     0.49363385     0.0011988673  -0.0017605952  -0.0011928217   11.307242      16.960846      22.614484      4337.0147      8.8532823e-07  6.9777341e-06
        16   0             -606.72         0.65512129     0.49363384     0.97809618     0.49363385    -0.00070634123  0.001037409    0.00070278746  11.307242      16.960846      22.614484      4337.0147      6.9802499e-07  5.3177636e-06
        17   0             -606.72         0.65512129     0.49363384     0.97809618     0.49363385     0.00051184224 -0.00075186109 -0.00050927365  11.307242      16.960846      22.614484      4337.0147      6.460765e-07   4.8292119e-06
        18   0             -606.72         0.65512129     0.49363385     0.97809618     0.49363385    -0.00030638843  0.00045021353  0.00030486078  11.307242      16.960846      22.614484      4337.0147      4.6581804e-07  3.7500522e-06
        19   0             -606.72         0.65512129     0.49363385     0.97809618     0.49363385     0.0001869586  -0.00027483138 -0.00018603287  11.307242      16.960846      22.614484      4337.0147      3.6319234e-07  2.9699733e-06
        20   0             -606.72         0.65512129     0.49363385     0.97809618     0.49363385    -9.1860856e-05  0.00013518689  9.1415398e-05  11.307242      16.960846      22.614484      4337.0147      2.9760982e-07  2.3592289e-06
        21   0             -606.72         0.65512129     0.49363385     0.97809618     0.49363385     5.532781e-05  -8.1599775e-05 -5.5070214e-05  11.307242      16.960846      22.614484      4337.0147      2.4017894e-07  1.8619908e-06
        22   0             -606.72         0.65512129     0.49363385     0.97809618     0.49363385    -2.7269791e-05  4.0379275e-05  2.7152574e-05  11.307242      16.960846      22.614484      4337.0147      1.7714494e-07  1.4020386e-06
        23   0             -606.72         0.65512129     0.49363385     0.97809618     0.49363385     1.365777e-05  -2.0448862e-05 -1.3612562e-05  11.307242      16.960846      22.614484      4337.0147      1.4398405e-07  1.181301e-06 
        24   0             -606.72         0.65512129     0.49363385     0.97809618     0.49363385    -7.8156619e-06  1.2043615e-05  7.8103055e-06  11.307242      16.960846      22.614484      4337.0147      1.3412777e-07  9.9679616e-07
        25   0             -606.72         0.65512129     0.49363385     0.97809618     0.49363385     2.8014529e-06 -4.6223781e-06 -2.8178569e-06  11.307242      16.960846      22.614484      4337.0147      8.2922808e-08  6.9006379e-07
        26   0             -606.72         0.65512129     0.49363385     0.97809618     0.49363385    -1.2815006e-06  2.7426661e-06  1.3267373e-06  11.307242      16.960846      22.614484      4337.0147      8.8995121e-08  7.0026086e-07
        27   0             -606.72         0.65512129     0.49363385     0.97809618     0.49363385    -3.3892172e-07 -3.4752937e-07  2.8643809e-07  11.307242      16.960846      22.614484      4337.0147      5.5558488e-08  4.6548839e-07
        28   0             -606.72         0.65512129     0.49363385     0.97809618     0.49363385     9.8145686e-07 -5.6165212e-07 -9.2368376e-07  11.307242      16.960846      22.614484      4337.0147      5.2909998e-08  3.3809397e-07
        29   0             -606.72         0.65512129     0.49363385     0.97809618     0.49363385    -1.6514655e-06  1.3080155e-06  1.5760365e-06  11.307242      16.960846      22.614484      4337.0147      3.4370558e-08  2.7000513e-07
        30   0             -606.72         0.65512129     0.49363385     0.97809618     0.49363385     1.7982387e-06 -1.5361899e-06 -1.7228173e-06  11.307242      16.960846      22.614484      4337.0147      2.2352004e-08  1.8482887e-07
        31   0             -606.72         0.65512129     0.49363385     0.97809618     0.49363385    -1.969653e-06   1.7326561e-06  1.8900034e-06  11.307242      16.960846      22.614484      4337.0147      1.8933132e-08  1.4630343e-07
        32   0             -606.72         0.65512129     0.49363385     0.97809618     0.49363385     1.9298948e-06 -1.7286427e-06 -1.8536735e-06  11.307242      16.960846      22.614484      4337.0147      1.4235421e-08  1.0672088e-07
        33   0             -606.72         0.65512129     0.49363385     0.97809618     0.49363385    -1.4570554e-06  1.3185287e-06  1.4003053e-06  11.307242      16.960846      22.614484      4337.0147      9.1212916e-09  6.2284857e-08
        34   0             -606.72         0.65512129     0.49363385     0.97809618     0.49363385     1.2917936e-06 -1.1752569e-06 -1.2418659e-06  11.307242      16.960846      22.614484      4337.0147      6.995987e-09   4.4272032e-08
        35   0             -606.72         0.65512129     0.49363385     0.97809618     0.49363385    -1.4961999e-06  1.365961e-06   1.4386991e-06  11.307242      16.960846      22.614484      4337.0147      3.99033e-09    3.0381344e-08
        36   0             -606.72         0.65512129     0.49363385     0.97809618     0.49363385     1.6347521e-06 -1.4939225e-06 -1.5720068e-06  11.307242      16.960846      22.614484      4337.0147      2.2871525e-09  1.8158598e-08
        37   0             -606.72         0.65512129     0.49363385     0.97809618     0.49363385    -1.64315e-06    1.5020238e-06  1.5800688e-06  11.307242      16.960846      22.614484      4337.0147      1.86992e-09    1.2632867e-08
        38   0             -606.72         0.65512129     0.49363385     0.97809618     0.49363385     1.3463542e-06 -1.2308813e-06 -1.294635e-06   11.307242      16.960846      22.614484      4337.0147      1.2003238e-09  7.5336071e-09
        39   0             -606.72         0.65512129     0.49363385     0.97809618     0.49363385    -1.6264992e-06  1.4870947e-06  1.5640406e-06  11.307242      16.960846      22.614484      4337.0147      8.7562259e-10  5.8094223e-09
        40   0             -606.72         0.65512129     0.49363385     0.97809618     0.49363385     1.0787506e-06 -9.8642021e-07 -1.0374556e-06  11.307242      16.960846      22.614484      4337.0147      4.4719689e-10  3.2536378e-09
        41   0             -606.72         0.65512129     0.49363385     0.97809618     0.49363385    -1.0058621e-06  9.1982347e-07  9.6745111e-07  11.307242      16.960846      22.614484      4337.0147      2.7694718e-10  2.1978747e-09
        42   0             -606.72         0.65512129     0.49363385     0.97809618     0.49363385     1.1361695e-06 -1.0390027e-06 -1.0928852e-06  11.307242      16.960846      22.614484      4337.0147      2.3613819e-10  1.8233864e-09
        43   0             -606.72         0.65512129     0.49363385     0.97809618     0.49363385    -6.4603955e-07  5.908186e-07   6.2153574e-07  11.307242      16.960846      22.614484      4337.0147      1.4303434e-10  1.0548811e-09
        44   0             -606.72         0.65512129     0.49363385     0.97809618     0.49363385     4.6615032e-07 -4.2639536e-07 -4.4859154e-07  11.307242      16.960846      22.614484      4337.0147      1.0391804e-10  8.0168299e-10
        45   0             -606.72         0.65512129     0.49363385     0.97809618     0.49363385    -2.5604963e-07  2.3439e-07     2.4659292e-07  11.307242      16.960846      22.614484      4337.0147      7.9468883e-11  6.06916e-10  
        46   0             -606.72         0.65512129     0.49363385     0.97809618     0.49363385     1.4108609e-07 -1.2930544e-07 -1.3601415e-07  11.307242      16.960846      22.614484      4337.0147      6.6279742e-11  4.6103839e-10
        47   0             -606.72         0.65512129     0.49363385     0.97809618     0.49363385    -4.2106758e-08  3.8711122e-08  4.0709095e-08  11.307242      16.960846      22.614484      4337.0147      4.784325e-11   2.9117544e-10
        48   0             -606.72         0.65512129     0.49363385     0.97809618     0.49363385     2.7766428e-08 -2.5778213e-08 -2.7088232e-08  11.307242      16.960846      22.614484      4337.0147      4.8308728e-11  2.7032381e-10
        49   0             -606.72         0.65512129     0.49363385     0.97809618     0.49363385    -1.0434515e-08  9.8694338e-09  1.0357951e-08  11.307242      16.960846      22.614484      4337.0147      1.9893783e-11  1.6219711e-10
        50   0             -606.72         0.65512129     0.49363385     0.97809618     0.49363385     4.7263652e-09 -4.6649502e-09 -4.8623004e-09  11.307242      16.960846      22.614484      4337.0147      1.6409111e-11  1.1958499e-10
        51   0             -606.72         0.65512129     0.49363385     0.97809618     0.49363385    -3.2649665e-09  3.5643836e-09  3.6208156e-09  11.307242      16.960846      22.614484      4337.0147      1.6203417e-11  1.1169153e-10
        52   0             -606.72         0.65512129     0.49363385     0.97809618     0.49363385     7.8883778e-10 -1.1894731e-09 -1.0926932e-09  11.307242      16.960846      22.614484      4337.0147      8.4937703e-12  6.3902446e-11
Loop time of 0.00849227 on 3 procs for 48 steps with 192 atoms

94.5% CPU use with 3 MPI tasks x 1 OpenMP threads

Minimization stats:
  Stopping criterion = force tolerance
  Energy initial, next-to-last, final = 
     -606.719999875225  -606.719999987099  -606.719999987099
  Force two-norm initial, final = 0.0020050139 6.3902446e-11
  Force max component initial, final = 0.00024082502 8.4937703e-12
  Final line search alpha, max atom move = 1 8.4937703e-12
  Iterations, force evaluations = 48 96

MPI task timing breakdown:
Section |  min time  |  avg time  |  max time  |%varavg| %total
---------------------------------------------------------------
Pair    | 0.0035136  | 0.0040271  | 0.0043053  |   0.6 | 47.42
Neigh   | 0          | 0          | 0          |   0.0 |  0.00
Comm    | 0.0010766  | 0.0014102  | 0.0019465  |   1.0 | 16.61
Output  | 0.0010412  | 0.0014208  | 0.0021702  |   1.4 | 16.73
Modify  | 0          | 0          | 0          |   0.0 |  0.00
Other   |            | 0.001634   |            |       | 19.24

Nlocal:             64 ave          66 max          60 min
Histogram: 1 0 0 0 0 0 0 0 0 2
Nghost:        375.333 ave         400 max         363 min
Histogram: 2 0 0 0 0 0 0 0 0 1
Neighs:              0 ave           0 max           0 min
Histogram: 3 0 0 0 0 0 0 0 0 0
FullNghs:         1792 ave        1848 max        1680 min
Histogram: 1 0 0 0 0 0 0 0 0 2

Total # of neighbors = 5376
Ave neighs/atom = 28
Neighbor list builds = 0
Dangerous builds = 0
OMP_NUM_THREADS environment is not set. Defaulting to 1 thread. (src/comm.cpp:98)
  using 1 OpenMP thread(s) per MPI task

The 'box' command has been removed and will be ignored

Reading restart file ...
  restart file = 2 Aug 2023, LAMMPS = 2 Aug 2023
  restoring atom style atomic from restart
  triclinic box = (-0.00062105231 -0.00093157847 -0.0012421046) to (11.306621 16.959932 22.613242) with tilt (0 0 0)
  1 by 1 by 3 MPI processor grid
  pair style sw stores no restart info
  192 atoms
  read_restart CPU = 0.001 seconds
Reading sw potential file /scratch/phys/t30429_nume-dft-ml/04-Ruoyan/00-MLP/04-short_range/ilearn/ilearn/potentials/params/SW/Ge.sw with DATE: 2025-10-10
Changing box ...
  triclinic box = (-0.00062105231 -0.00093157847 -0.0012421046) to (11.306621 16.959949 22.613242) with tilt (0 0 0)
  triclinic box = (-0.00062105231 -0.00093157847 -0.0012421046) to (11.306621 16.959949 22.613242) with tilt (0 0 0)
Neighbor list info ...
  update: every = 1 steps, delay = 0 steps, check = yes
  max neighbors/atom: 2000, page size: 100000
  master list distance cutoff = 4.9258
  ghost atom cutoff = 4.9258
  1 neighbor lists, perpetual/occasional/extra = 1 0 0
  (1) pair sw, perpetual
      attributes: full, newton on
      pair build: full/nsq
      stencil: none
      bin: none
Setting up cg style minimization ...
  Unit style    : metal
  Current step  : 4
Per MPI rank memory allocation (min/avg/max) = 4.178 | 4.178 | 4.178 Mbytes
   Step          Temp          PotEng         Press           Pxx            Pyy            Pzz            Pxy            Pxz            Pyz             Lx             Ly             Lz           Volume          Fmax          Fnorm     
         4   0             -606.72        -0.65508156    -0.49359298    -0.97805804    -0.49359367    -0.18320683     0.26896406     0.18225946     11.307242      16.96088       22.614484      4337.0234      0.00024082452  0.0020050086 
         5   0             -606.72        -0.65511838    -0.49363088    -0.97809368    -0.49363059     0.043605187   -0.06402399    -0.043382266    11.307242      16.96088       22.614484      4337.0234      4.8371883e-05  0.00037511965
         6   0             -606.72        -0.6551191     -0.49363156    -0.97809422    -0.49363154    -0.041302482    0.060645055    0.041093068    11.307242      16.96088       22.614484      4337.0234      2.4563037e-05  0.00020528904
         7   0             -606.72        -0.65511898    -0.49363147    -0.97809403    -0.49363143     0.041473197   -0.060896114   -0.041263196    11.307242      16.96088       22.614484      4337.0234      1.6850454e-05  0.00014226333
         8   0             -606.72        -0.65511896    -0.49363144    -0.97809398    -0.49363147    -0.029126187    0.042767044    0.028978887    11.307242      16.96088       22.614484      4337.0234      9.253282e-06   8.2727142e-05
         9   0             -606.72        -0.65511897    -0.49363146    -0.978094      -0.49363145     0.021406807   -0.031432377   -0.021298552    11.307242      16.96088       22.614484      4337.0234      6.329729e-06   5.1522013e-05
        10   0             -606.72        -0.65511896    -0.49363145    -0.97809401    -0.49363144    -0.015984297    0.023470312    0.015903495    11.307242      16.96088       22.614484      4337.0234      5.3887354e-06  3.6246608e-05
        11   0             -606.72        -0.65511896    -0.49363144    -0.97809401    -0.49363144     0.010418489   -0.015297799   -0.010365835    11.307242      16.96088       22.614484      4337.0234      2.6642029e-06  2.3212763e-05
        12   0             -606.72        -0.65511896    -0.49363144    -0.97809401    -0.49363144    -0.0061751499   0.0090671411   0.0061439512   11.307242      16.96088       22.614484      4337.0234      2.235752e-06   1.5080554e-05
        13   0             -606.72        -0.65511896    -0.49363144    -0.97809401    -0.49363144     0.0035860126  -0.0052653931  -0.003567899    11.307242      16.96088       22.614484      4337.0234      1.505895e-06   1.0919111e-05
        14   0             -606.72        -0.65511896    -0.49363144    -0.97809401    -0.49363144    -0.0021718644   0.0031889378   0.0021609012   11.307242      16.96088       22.614484      4337.0234      1.1904233e-06  8.8698806e-06
        15   0             -606.72        -0.65511896    -0.49363144    -0.97809401    -0.49363144     0.0011989866  -0.0017604028  -0.0011929406   11.307242      16.96088       22.614484      4337.0234      8.8532429e-07  6.9777011e-06
        16   0             -606.72        -0.65511896    -0.49363144    -0.97809401    -0.49363144    -0.00070647264  0.0010372114   0.0007029185   11.307242      16.96088       22.614484      4337.0234      6.9802554e-07  5.317744e-06 
        17   0             -606.72        -0.65511896    -0.49363144    -0.97809401    -0.49363143     0.00051200209 -0.00075162846 -0.00050943311  11.307242      16.96088       22.614484      4337.0234      6.4606488e-07  4.8291959e-06
        18   0             -606.72        -0.65511896    -0.49363144    -0.97809401    -0.49363144    -0.00030656661  0.00044995775  0.00030503862  11.307242      16.96088       22.614484      4337.0234      4.6581213e-07  3.7500314e-06
        19   0             -606.72        -0.65511896    -0.49363144    -0.97809401    -0.49363144     0.0001871296  -0.00027459007 -0.00018620366  11.307242      16.96088       22.614484      4337.0234      3.6318068e-07  2.9699546e-06
        20   0             -606.72        -0.65511896    -0.49363144    -0.97809401    -0.49363144    -9.2029326e-05  0.00013495326  9.158365e-05   11.307242      16.96088       22.614484      4337.0234      2.9759947e-07  2.3592075e-06
        21   0             -606.72        -0.65511896    -0.49363144    -0.97809401    -0.49363144     5.5529214e-05 -8.1323866e-05 -5.5271321e-05  11.307242      16.96088       22.614484      4337.0234      2.4016802e-07  1.8619753e-06
        22   0             -606.72        -0.65511896    -0.49363144    -0.97809401    -0.49363144    -2.7459488e-05  4.0120336e-05  2.7342183e-05  11.307242      16.96088       22.614484      4337.0234      1.7715171e-07  1.4020271e-06
        23   0             -606.72        -0.65511896    -0.49363144    -0.97809401    -0.49363144     1.3879911e-05 -2.0146586e-05 -1.3834847e-05  11.307242      16.96088       22.614484      4337.0234      1.4397573e-07  1.1812944e-06
        24   0             -606.72        -0.65511896    -0.49363144    -0.97809401    -0.49363144    -8.135373e-06   1.1608842e-05  8.1303704e-06  11.307242      16.96088       22.614484      4337.0234      1.3413956e-07  9.9678676e-07
        25   0             -606.72        -0.65511896    -0.49363144    -0.97809401    -0.49363144     3.0883576e-06 -4.2325486e-06 -3.1051318e-06  11.307242      16.96088       22.614484      4337.0234      8.2911353e-08  6.9005784e-07
        26   0             -606.72        -0.65511896    -0.49363144    -0.97809401    -0.49363144    -1.7670942e-06  2.0832875e-06  1.8129604e-06  11.307242      16.96088       22.614484      4337.0234      8.9008531e-08  7.0025374e-07
        27   0             -606.72        -0.65511896    -0.49363144    -0.97809401    -0.49363144     1.3793891e-07  2.9960388e-07 -1.9097626e-07  11.307242      16.96088       22.614484      4337.0234      5.5542432e-08  4.6548058e-07
        28   0             -606.72        -0.65511896    -0.49363144    -0.97809401    -0.49363144     4.8522484e-07 -1.2350213e-06 -4.2684844e-07  11.307242      16.96088       22.614484      4337.0234      5.2923869e-08  3.3808786e-07
        29   0             -606.72        -0.65511896    -0.49363144    -0.97809401    -0.49363144    -1.0212267e-06  2.1632184e-06  9.4507219e-07  11.307242      16.96088       22.614484      4337.0234      3.434954e-08   2.7000047e-07
        30   0             -606.72        -0.65511896    -0.49363144    -0.97809401    -0.49363144     1.1751311e-06 -2.3817161e-06 -1.099001e-06   11.307242      16.96088       22.614484      4337.0234      2.2378461e-08  1.8482602e-07
        31   0             -606.72        -0.65511896    -0.49363144    -0.97809401    -0.49363144    -1.3152999e-06  2.6205036e-06  1.2350221e-06  11.307242      16.96088       22.614484      4337.0234      1.8953995e-08  1.4630142e-07
        32   0             -606.72        -0.65511896    -0.49363144    -0.97809401    -0.49363144     1.3060971e-06 -2.5748116e-06 -1.2294011e-06  11.307242      16.96088       22.614484      4337.0234      1.4215286e-08  1.0671913e-07
        33   0             -606.72        -0.65511896    -0.49363144    -0.97809401    -0.49363144    -9.9369445e-07  1.9470339e-06  9.365083e-07   11.307242      16.96088       22.614484      4337.0234      9.1358371e-09  6.2283524e-08
        34   0             -606.72        -0.65511896    -0.49363144    -0.97809401    -0.49363144     8.8459752e-07 -1.7276746e-06 -8.3419848e-07  11.307242      16.96088       22.614484      4337.0234      6.9830186e-09  4.4271422e-08
        35   0             -606.72        -0.65511896    -0.49363144    -0.97809401    -0.49363144    -1.0273622e-06  2.0021306e-06  9.6915276e-07  11.307242      16.96088       22.614484      4337.0234      4.0052556e-09  3.0380526e-08
        36   0             -606.72        -0.65511896    -0.49363144    -0.97809401    -0.49363144     1.1234417e-06 -2.1879314e-06 -1.0598768e-06  11.307242      16.96088       22.614484      4337.0234      2.2709755e-09  1.8157696e-08
        37   0             -606.72        -0.65511896    -0.49363144    -0.97809401    -0.49363144    -1.1296819e-06  2.1996461e-06  1.0658536e-06  11.307242      16.96088       22.614484      4337.0234      1.8539498e-09  1.2632233e-08
        38   0             -606.72        -0.65511896    -0.49363144    -0.97809401    -0.49363144     9.2596354e-07 -1.8028105e-06 -8.7375169e-07  11.307242      16.96088       22.614484      4337.0234      1.1873829e-09  7.5326923e-09
        39   0             -606.72        -0.65511896    -0.49363144    -0.97809401    -0.49363144    -1.1195472e-06  2.1795694e-06  1.0564468e-06  11.307242      16.96088       22.614484      4337.0234      8.6006874e-10  5.8083601e-09
        40   0             -606.72        -0.65511896    -0.49363144    -0.97809401    -0.49363144     7.4353335e-07 -1.4474835e-06 -7.0161072e-07  11.307242      16.96088       22.614484      4337.0234      4.6202882e-10  3.2526065e-09
        41   0             -606.72        -0.65511896    -0.49363144    -0.97809401    -0.49363144    -6.9480618e-07  1.3526262e-06  6.5563912e-07  11.307242      16.96088       22.614484      4337.0234      2.6783271e-10  2.1967646e-09
        42   0             -606.72        -0.65511896    -0.49363144    -0.97809401    -0.49363144     7.8829771e-07 -1.5345718e-06 -7.438192e-07   11.307242      16.96088       22.614484      4337.0234      2.432543e-10   1.8223335e-09
        43   0             -606.72        -0.65511896    -0.49363144    -0.97809401    -0.49363144    -4.5072807e-07  8.7734317e-07  4.2524833e-07  11.307242      16.96088       22.614484      4337.0234      1.3672914e-10  1.0539713e-09
        44   0             -606.72        -0.65511896    -0.49363144    -0.97809401    -0.49363144     3.2738688e-07 -6.371956e-07  -3.0880189e-07  11.307242      16.96088       22.614484      4337.0234      1.0421014e-10  8.0174884e-10
        45   0             -606.72        -0.65511896    -0.49363144    -0.97809401    -0.49363144    -1.8070139e-07  3.5158053e-07  1.7029144e-07  11.307242      16.96088       22.614484      4337.0234      7.7003669e-11  6.0693851e-10
        46   0             -606.72        -0.65511896    -0.49363144    -0.97809401    -0.49363144     9.9859449e-08 -1.9422892e-07 -9.3996247e-08  11.307242      16.96088       22.614484      4337.0234      6.4933396e-11  4.6105886e-10
        47   0             -606.72        -0.65511896    -0.49363144    -0.97809401    -0.49363144    -2.9863277e-08  5.8088468e-08  2.8047586e-08  11.307242      16.96088       22.614484      4337.0234      4.8471411e-11  2.9120543e-10
        48   0             -606.72        -0.65511896    -0.49363144    -0.97809401    -0.49363144     1.97383e-08   -3.8396217e-08 -1.8412067e-08  11.307242      16.96088       22.614484      4337.0234      4.8004163e-11  2.7033954e-10
        49   0             -606.72        -0.65511896    -0.49363144    -0.97809401    -0.49363144    -7.4845298e-09  1.4466018e-08  6.8538393e-09  11.307242      16.96088       22.614484      4337.0234      1.9860148e-11  1.6220557e-10
        50   0             -606.72        -0.65511896    -0.49363144    -0.97809401    -0.49363144     3.4833022e-09 -6.5866834e-09 -3.0464174e-09  11.307242      16.96088       22.614484      4337.0234      1.6449784e-11  1.1958401e-10
        51   0             -606.72        -0.65511896    -0.49363144    -0.97809401    -0.49363144    -2.5070601e-09  4.5805264e-09  1.9763488e-09  11.307242      16.96088       22.614484      4337.0234      1.6201779e-11  1.1168406e-10
        52   0             -606.72        -0.65511896    -0.49363144    -0.97809401    -0.49363144     6.3802494e-10 -1.0977774e-09 -3.4342434e-10  11.307242      16.96088       22.614484      4337.0234      8.5230318e-12  6.3900624e-11
Loop time of 0.00819634 on 3 procs for 48 steps with 192 atoms

95.4% CPU use with 3 MPI tasks x 1 OpenMP threads

Minimization stats:
  Stopping criterion = force tolerance
  Energy initial, next-to-last, final = 
     -606.719999875225  -606.719999987099  -606.719999987099
  Force two-norm initial, final = 0.0020050086 6.3900624e-11
  Force max component initial, final = 0.00024082452 8.5230318e-12
  Final line search alpha, max atom move = 1 8.5230318e-12
  Iterations, force evaluations = 48 96

MPI task timing breakdown:
Section |  min time  |  avg time  |  max time  |%varavg| %total
---------------------------------------------------------------
Pair    | 0.0035367  | 0.0038938  | 0.0043364  |   0.5 | 47.51
Neigh   | 0          | 0          | 0          |   0.0 |  0.00
Comm    | 0.00094177 | 0.0013812  | 0.00181    |   1.0 | 16.85
Output  | 0.0010025  | 0.0013584  | 0.0020612  |   1.3 | 16.57
Modify  | 0          | 0          | 0          |   0.0 |  0.00
Other   |            | 0.001563   |            |       | 19.07

Nlocal:             64 ave          66 max          60 min
Histogram: 1 0 0 0 0 0 0 0 0 2
Nghost:        375.333 ave         400 max         363 min
Histogram: 2 0 0 0 0 0 0 0 0 1
Neighs:              0 ave           0 max           0 min
Histogram: 3 0 0 0 0 0 0 0 0 0
FullNghs:         1792 ave        1848 max        1680 min
Histogram: 1 0 0 0 0 0 0 0 0 2

Total # of neighbors = 5376
Ave neighs/atom = 28
Neighbor list builds = 0
Dangerous builds = 0
OMP_NUM_THREADS environment is not set. Defaulting to 1 thread. (src/comm.cpp:98)
  using 1 OpenMP thread(s) per MPI task

The 'box' command has been removed and will be ignored

Reading restart file ...
  restart file = 2 Aug 2023, LAMMPS = 2 Aug 2023
  restoring atom style atomic from restart
  triclinic box = (-0.00062105231 -0.00093157847 -0.0012421046) to (11.306621 16.959932 22.613242) with tilt (0 0 0)
  1 by 1 by 3 MPI processor grid
  pair style sw stores no restart info
  192 atoms
  read_restart CPU = 0.000 seconds
Reading sw potential file /scratch/phys/t30429_nume-dft-ml/04-Ruoyan/00-MLP/04-short_range/ilearn/ilearn/potentials/params/SW/Ge.sw with DATE: 2025-10-10
Changing box ...
  triclinic box = (-0.00062105231 -0.00093157847 -0.0012421046) to (11.306621 16.959932 22.613219) with tilt (0 0 0)
Neighbor list info ...
  update: every = 1 steps, delay = 0 steps, check = yes
  max neighbors/atom: 2000, page size: 100000
  master list distance cutoff = 4.9258
  ghost atom cutoff = 4.9258
  1 neighbor lists, perpetual/occasional/extra = 1 0 0
  (1) pair sw, perpetual
      attributes: full, newton on
      pair build: full/nsq
      stencil: none
      bin: none
Setting up cg style minimization ...
  Unit style    : metal
  Current step  : 4
Per MPI rank memory allocation (min/avg/max) = 4.178 | 4.178 | 4.178 Mbytes
   Step          Temp          PotEng         Press           Pxx            Pyy            Pzz            Pxy            Pxz            Pyz             Lx             Ly             Lz           Volume          Fmax          Fnorm     
         4   0             -606.72         0.65515869     0.49367231     0.49366981     0.97813394    -0.18320775     0.2689654      0.18226039     11.307242      16.960863      22.614462      4337.0147      0.00024082511  0.002005014  
         5   0             -606.72         0.65512187     0.4936344      0.49363417     0.97809702     0.043605375   -0.064024265   -0.043382372    11.307242      16.960863      22.614462      4337.0147      4.8371965e-05  0.00037512039
         6   0             -606.72         0.65512115     0.49363372     0.49363364     0.97809608    -0.041302666    0.060645325    0.041093115    11.307242      16.960863      22.614462      4337.0147      2.4563083e-05  0.00020528939
         7   0             -606.72         0.65512127     0.49363382     0.49363382     0.97809618     0.041473441   -0.060896472   -0.041263236    11.307242      16.960863      22.614462      4337.0147      1.6850493e-05  0.00014226369
         8   0             -606.72         0.65512129     0.49363384     0.49363388     0.97809614    -0.029126405    0.042767365    0.02897889     11.307242      16.960863      22.614462      4337.0147      9.2533203e-06  8.2727472e-05
         9   0             -606.72         0.65512128     0.49363382     0.49363385     0.97809616     0.021406957   -0.031432597   -0.021298483    11.307242      16.960863      22.614462      4337.0147      6.3297372e-06  5.1522187e-05
        10   0             -606.72         0.65512129     0.49363383     0.49363385     0.97809618    -0.01598444     0.023470523    0.015903418    11.307242      16.960863      22.614462      4337.0147      5.3887653e-06  3.6246761e-05
        11   0             -606.72         0.65512129     0.49363384     0.49363385     0.97809618     0.010418615   -0.015297984   -0.010365761    11.307242      16.960863      22.614462      4337.0147      2.6642216e-06  2.3212892e-05
        12   0             -606.72         0.65512129     0.49363384     0.49363385     0.97809618    -0.0061752356   0.0090672673   0.0061438772   11.307242      16.960863      22.614462      4337.0147      2.2357618e-06  1.5080627e-05
        13   0             -606.72         0.65512129     0.49363384     0.49363385     0.97809618     0.0035860741  -0.0052654837  -0.0035678273   11.307242      16.960863      22.614462      4337.0147      1.5058998e-06  1.0919152e-05
        14   0             -606.72         0.65512129     0.49363384     0.49363385     0.97809618    -0.0021719133   0.0031890098   0.0021608251   11.307242      16.960863      22.614462      4337.0147      1.1904266e-06  8.8699081e-06
        15   0             -606.72         0.65512129     0.49363384     0.49363385     0.97809618     0.0011990295  -0.0017604661  -0.001192859    11.307242      16.960863      22.614462      4337.0147      8.853293e-07   6.9777314e-06
        16   0             -606.72         0.65512129     0.49363384     0.49363385     0.97809618    -0.00070651086  0.0010372679   0.0007028245   11.307242      16.960863      22.614462      4337.0147      6.9802737e-07  5.3177633e-06
        17   0             -606.72         0.65512129     0.49363384     0.49363385     0.97809618     0.00051204442 -0.0007516909  -0.00050931709  11.307242      16.960863      22.614462      4337.0147      6.4607005e-07  4.8292128e-06
        18   0             -606.72         0.65512129     0.49363385     0.49363385     0.97809618    -0.00030661259  0.00045002529  0.00030490905  11.307242      16.960863      22.614462      4337.0147      4.6581417e-07  3.7500538e-06
        19   0             -606.72         0.65512129     0.49363385     0.49363385     0.97809618     0.00018717223 -0.00027465252 -0.00018607907  11.307242      16.960863      22.614462      4337.0147      3.6318544e-07  2.9699725e-06
        20   0             -606.72         0.65512129     0.49363385     0.49363385     0.97809618    -9.2070172e-05  0.00013501304  9.1461123e-05  11.307242      16.960863      22.614462      4337.0147      2.9760311e-07  2.359228e-06 
        21   0             -606.72         0.65512129     0.49363385     0.49363385     0.97809618     5.5576566e-05 -8.1393143e-05 -5.5124498e-05  11.307242      16.960863      22.614462      4337.0147      2.4017111e-07  1.8619884e-06
        22   0             -606.72         0.65512129     0.49363385     0.49363385     0.97809618    -2.7503763e-05  4.0184926e-05  2.7203636e-05  11.307242      16.960863      22.614462      4337.0147      1.7715026e-07  1.402036e-06 
        23   0             -606.72         0.65512129     0.49363385     0.49363385     0.97809618     1.393143e-05  -2.022155e-05  -1.3672325e-05  11.307242      16.960863      22.614462      4337.0147      1.4397556e-07  1.1812987e-06
        24   0             -606.72         0.65512129     0.49363385     0.49363385     0.97809618    -8.2094284e-06  1.1716506e-05  7.8963294e-06  11.307242      16.960863      22.614462      4337.0147      1.3413717e-07  9.9679352e-07
        25   0             -606.72         0.65512129     0.49363385     0.49363385     0.97809618     3.1546561e-06 -4.3289842e-06 -2.8950382e-06  11.307242      16.960863      22.614462      4337.0147      8.29193e-08    6.9006181e-07
        26   0             -606.72         0.65512129     0.49363385     0.49363385     0.97809618    -1.8791493e-06  2.2462839e-06  1.4573523e-06  11.307242      16.960863      22.614462      4337.0147      8.899844e-08   7.0025852e-07
        27   0             -606.72         0.65512129     0.49363385     0.49363385     0.97809618     2.4783965e-07  1.3976566e-07  1.5819616e-07  11.307242      16.960863      22.614462      4337.0147      5.5539581e-08  4.6548669e-07
        28   0             -606.72         0.65512129     0.49363385     0.49363385     0.97809618     3.7087372e-07 -1.0687462e-06 -7.9025326e-07  11.307242      16.960863      22.614462      4337.0147      5.2928412e-08  3.3809282e-07
        29   0             -606.72         0.65512129     0.49363385     0.49363385     0.97809618    -8.7604803e-07  1.9520061e-06  1.4066394e-06  11.307242      16.960863      22.614462      4337.0147      3.4345438e-08  2.7000402e-07
        30   0             -606.72         0.65512129     0.49363385     0.49363385     0.97809618     1.0316243e-06 -2.1728568e-06 -1.555442e-06   11.307242      16.960863      22.614462      4337.0147      2.2372239e-08  1.8482817e-07
        31   0             -606.72         0.65512129     0.49363385     0.49363385     0.97809618    -1.164771e-06   2.4011874e-06  1.7143656e-06  11.307242      16.960863      22.614462      4337.0147      1.8959033e-08  1.4630316e-07
        32   0             -606.72         0.65512129     0.49363385     0.49363385     0.97809618     1.1627427e-06 -2.3658323e-06 -1.686327e-06   11.307242      16.960863      22.614462      4337.0147      1.4210974e-08  1.067207e-07 
        33   0             -606.72         0.65512129     0.49363385     0.49363385     0.97809618    -8.8717118e-07  1.7917956e-06  1.2759688e-06  11.307242      16.960863      22.614462      4337.0147      9.1393848e-09  6.2284473e-08
        34   0             -606.72         0.65512129     0.49363385     0.49363385     0.97809618     7.9087525e-07 -1.5911768e-06 -1.1325427e-06  11.307242      16.960863      22.614462      4337.0147      6.9800718e-09  4.4271904e-08
        35   0             -606.72         0.65512129     0.49363385     0.49363385     0.97809618    -9.1924742e-07  1.8449422e-06  1.3127675e-06  11.307242      16.960863      22.614462      4337.0147      4.0087597e-09  3.0380933e-08
        36   0             -606.72         0.65512129     0.49363385     0.49363385     0.97809618     1.0054834e-06 -2.0165287e-06 -1.4347228e-06  11.307242      16.960863      22.614462      4337.0147      2.2673359e-09  1.8157843e-08
        37   0             -606.72         0.65512129     0.49363385     0.49363385     0.97809618    -1.011206e-06   2.0275033e-06  1.4424851e-06  11.307242      16.960863      22.614462      4337.0147      1.8501791e-09  1.2632322e-08
        38   0             -606.72         0.65512129     0.49363385     0.49363385     0.97809618     8.2897764e-07 -1.6618968e-06 -1.1823425e-06  11.307242      16.960863      22.614462      4337.0147      1.1843898e-09  7.5326679e-09
        39   0             -606.72         0.65512129     0.49363385     0.49363385     0.97809618    -1.0024311e-06  2.0095517e-06  1.4296248e-06  11.307242      16.960863      22.614462      4337.0147      8.5641082e-10  5.8082472e-09
        40   0             -606.72         0.65512129     0.49363385     0.49363385     0.97809618     6.6593798e-07 -1.3349412e-06 -9.4964778e-07  11.307242      16.960863      22.614462      4337.0147      4.5847873e-10  3.2524315e-09
        41   0             -606.72         0.65512129     0.49363385     0.49363385     0.97809618    -6.2258374e-07  1.2479633e-06  8.8777728e-07  11.307242      16.960863      22.614462      4337.0147      2.7444682e-10  2.1966081e-09
        42   0             -606.72         0.65512129     0.49363385     0.49363385     0.97809618     7.0676291e-07 -1.4168549e-06 -1.0079168e-06  11.307242      16.960863      22.614462      4337.0147      2.3950891e-10  1.8221376e-09
        43   0             -606.72         0.65512129     0.49363385     0.49363385     0.97809618    -4.0440951e-07  8.1094157e-07  5.7692615e-07  11.307242      16.960863      22.614462      4337.0147      1.415089e-10   1.0538284e-09
        44   0             -606.72         0.65512129     0.49363385     0.49363385     0.97809618     2.9401528e-07 -5.8964826e-07 -4.1953515e-07  11.307242      16.960863      22.614462      4337.0147      1.0521041e-10  8.017903e-10 
        45   0             -606.72         0.65512129     0.49363385     0.49363385     0.97809618    -1.6225115e-07  3.2544905e-07  2.3159076e-07  11.307242      16.960863      22.614462      4337.0147      7.6388249e-11  6.0691558e-10
        46   0             -606.72         0.65512129     0.49363385     0.49363385     0.97809618     8.9646833e-08 -1.7990214e-07 -1.2807284e-07  11.307242      16.960863      22.614462      4337.0147      6.4651e-11     4.6108048e-10
        47   0             -606.72         0.65512129     0.49363385     0.49363385     0.97809618    -2.6801995e-08  5.3845168e-08  3.8388738e-08  11.307242      16.960863      22.614462      4337.0147      4.8306654e-11  2.9120139e-10
        48   0             -606.72         0.65512129     0.49363385     0.49363385     0.97809618     1.7600949e-08 -3.5790078e-08 -2.5657737e-08  11.307242      16.960863      22.614462      4337.0147      4.8057195e-11  2.7034147e-10
        49   0             -606.72         0.65512129     0.49363385     0.49363385     0.97809618    -6.5367519e-09  1.3628376e-08  9.8843828e-09  11.307242      16.960863      22.614462      4337.0147      1.9896475e-11  1.6221267e-10
        50   0             -606.72         0.65512129     0.49363385     0.49363385     0.97809618     2.9151846e-09 -6.3765271e-09 -4.7146163e-09  11.307242      16.960863      22.614462      4337.0147      1.6425591e-11  1.1959236e-10
        51   0             -606.72         0.65512129     0.49363385     0.49363385     0.97809618    -1.9412473e-09  4.720236e-09   3.6442355e-09  11.307242      16.960863      22.614462      4337.0147      1.615996e-11   1.1169793e-10
        52   0             -606.72         0.65512129     0.49363385     0.49363385     0.97809618     3.7770852e-10 -1.3300697e-09 -1.1890647e-09  11.307242      16.960863      22.614462      4337.0147      8.4706816e-12  6.3926584e-11
Loop time of 0.00795273 on 3 procs for 48 steps with 192 atoms

96.7% CPU use with 3 MPI tasks x 1 OpenMP threads

Minimization stats:
  Stopping criterion = force tolerance
  Energy initial, next-to-last, final = 
     -606.719999875225  -606.719999987099  -606.719999987099
  Force two-norm initial, final = 0.002005014 6.3926584e-11
  Force max component initial, final = 0.00024082511 8.4706816e-12
  Final line search alpha, max atom move = 1 8.4706816e-12
  Iterations, force evaluations = 48 96

MPI task timing breakdown:
Section |  min time  |  avg time  |  max time  |%varavg| %total
---------------------------------------------------------------
Pair    | 0.0034765  | 0.0039708  | 0.0043386  |   0.6 | 49.93
Neigh   | 0          | 0          | 0          |   0.0 |  0.00
Comm    | 0.0010322  | 0.0014454  | 0.0019919  |   1.1 | 18.18
Output  | 0.00099532 | 0.0012362  | 0.0017091  |   1.0 | 15.54
Modify  | 0          | 0          | 0          |   0.0 |  0.00
Other   |            | 0.0013     |            |       | 16.35

Nlocal:             64 ave          66 max          60 min
Histogram: 1 0 0 0 0 0 0 0 0 2
Nghost:        375.333 ave         400 max         363 min
Histogram: 2 0 0 0 0 0 0 0 0 1
Neighs:              0 ave           0 max           0 min
Histogram: 3 0 0 0 0 0 0 0 0 0
FullNghs:         1792 ave        1848 max        1680 min
Histogram: 1 0 0 0 0 0 0 0 0 2

Total # of neighbors = 5376
Ave neighs/atom = 28
Neighbor list builds = 0
Dangerous builds = 0
OMP_NUM_THREADS environment is not set. Defaulting to 1 thread. (src/comm.cpp:98)
  using 1 OpenMP thread(s) per MPI task

The 'box' command has been removed and will be ignored

Reading restart file ...
  restart file = 2 Aug 2023, LAMMPS = 2 Aug 2023
  restoring atom style atomic from restart
  triclinic box = (-0.00062105231 -0.00093157847 -0.0012421046) to (11.306621 16.959932 22.613242) with tilt (0 0 0)
  1 by 1 by 3 MPI processor grid
  pair style sw stores no restart info
  192 atoms
  read_restart CPU = 0.000 seconds
Reading sw potential file /scratch/phys/t30429_nume-dft-ml/04-Ruoyan/00-MLP/04-short_range/ilearn/ilearn/potentials/params/SW/Ge.sw with DATE: 2025-10-10
Changing box ...
  triclinic box = (-0.00062105231 -0.00093157847 -0.0012421046) to (11.306621 16.959932 22.613265) with tilt (0 0 0)
Neighbor list info ...
  update: every = 1 steps, delay = 0 steps, check = yes
  max neighbors/atom: 2000, page size: 100000
  master list distance cutoff = 4.9258
  ghost atom cutoff = 4.9258
  1 neighbor lists, perpetual/occasional/extra = 1 0 0
  (1) pair sw, perpetual
      attributes: full, newton on
      pair build: full/nsq
      stencil: none
      bin: none
Setting up cg style minimization ...
  Unit style    : metal
  Current step  : 4
Per MPI rank memory allocation (min/avg/max) = 4.178 | 4.178 | 4.178 Mbytes
[...]
        44   0             -606.72        -1.1690894e-07 -3.7273675e-07  1.1425127e-07 -9.2241353e-08  0.36462254    -5.4014635e-07 -4.3284356e-07  11.307242      16.960863      22.614484      4337.019       1.2524194e-10  8.0117629e-10
        45   0             -606.72        -1.16916e-07   -3.7274459e-07  1.1424777e-07 -9.2251183e-08  0.36462296     2.9070143e-07  2.329906e-07   11.307242      16.960863      22.614484      4337.019       7.6437668e-11  6.0690272e-10
        46   0             -606.72        -1.1689497e-07 -3.727284e-07   1.1426845e-07 -9.2224962e-08  0.36462273    -1.5851834e-07 -1.2700395e-07  11.307242      16.960863      22.614484      4337.019       6.5334274e-11  4.6096443e-10
        47   0             -606.72        -1.1689979e-07 -3.727278e-07   1.1425965e-07 -9.223121e-08   0.36462283     4.7278481e-08  3.7772599e-08  11.307242      16.960863      22.614484      4337.019       4.8123038e-11  2.9110399e-10
        48   0             -606.72        -1.1692528e-07 -3.7275219e-07  1.1423475e-07 -9.2258397e-08  0.36462279    -3.1615573e-08 -2.4980929e-08  11.307242      16.960863      22.614484      4337.019       4.694743e-11   2.702995e-10 
        49   0             -606.72        -1.1689678e-07 -3.7272599e-07  1.1426084e-07 -9.22252e-08    0.36462282     1.2235111e-08  9.4700179e-09  11.307242      16.960863      22.614484      4337.019       2.0318122e-11  1.6216045e-10
        50   0             -606.72        -1.1690188e-07 -3.7273297e-07  1.1425705e-07 -9.2229732e-08  0.36462281    -5.8950814e-09 -4.3821907e-09  11.307242      16.960863      22.614484      4337.019       1.6452696e-11  1.1957412e-10
        51   0             -606.72        -1.1688238e-07 -3.7271449e-07  1.1428058e-07 -9.2213239e-08  0.36462281     4.6221088e-09  3.2060689e-09  11.307242      16.960863      22.614484      4337.019       1.6001761e-11  1.1167843e-10
        52   0             -606.72        -1.1691008e-07 -3.7273951e-07  1.1424778e-07 -9.2238524e-08  0.36462281    -1.4838411e-09 -9.1549602e-10  11.307242      16.960863      22.614484      4337.019       8.5196284e-12  6.391612e-11 
Loop time of 0.0084565 on 3 procs for 48 steps with 192 atoms

95.2% CPU use with 3 MPI tasks x 1 OpenMP threads

Minimization stats:
  Stopping criterion = force tolerance
  Energy initial, next-to-last, final = 
     -606.719999876085  -606.719999987933  -606.719999987933
  Force two-norm initial, final = 0.0020046451 6.391612e-11
  Force max component initial, final = 0.0002408248 8.5196284e-12
  Final line search alpha, max atom move = 1 8.5196284e-12
  Iterations, force evaluations = 48 96

MPI task timing breakdown:
Section |  min time  |  avg time  |  max time  |%varavg| %total
---------------------------------------------------------------
Pair    | 0.0035021  | 0.0039625  | 0.0042114  |   0.5 | 46.86
Neigh   | 0          | 0          | 0          |   0.0 |  0.00
Comm    | 0.0010887  | 0.0014112  | 0.0019165  |   1.0 | 16.69
Output  | 0.0010324  | 0.0014343  | 0.0022302  |   1.5 | 16.96
Modify  | 0          | 0          | 0          |   0.0 |  0.00
Other   |            | 0.001649   |            |       | 19.49

Nlocal:             64 ave          66 max          60 min
Histogram: 1 0 0 0 0 0 0 0 0 2
Nghost:        375.333 ave         400 max         363 min
Histogram: 2 0 0 0 0 0 0 0 0 1
Neighs:              0 ave           0 max           0 min
Histogram: 3 0 0 0 0 0 0 0 0 0
FullNghs:         1792 ave        1848 max        1680 min
Histogram: 1 0 0 0 0 0 0 0 0 2

Total # of neighbors = 5376
Ave neighs/atom = 28
Neighbor list builds = 0
Dangerous builds = 0
OMP_NUM_THREADS environment is not set. Defaulting to 1 thread. (src/comm.cpp:98)
  using 1 OpenMP thread(s) per MPI task

The 'box' command has been removed and will be ignored

Reading restart file ...
  restart file = 2 Aug 2023, LAMMPS = 2 Aug 2023
  restoring atom style atomic from restart
  triclinic box = (-0.00062105231 -0.00093157847 -0.0012421046) to (11.306621 16.959932 22.613242) with tilt (0 0 0)
  1 by 1 by 3 MPI processor grid
  pair style sw stores no restart info
  192 atoms
  read_restart CPU = 0.000 seconds
Reading sw potential file /scratch/phys/t30429_nume-dft-ml/04-Ruoyan/00-MLP/04-short_range/ilearn/ilearn/potentials/params/SW/Ge.sw with DATE: 2025-10-10
Changing box ...
  triclinic box = (-0.00062105231 -0.00093157847 -0.0012421046) to (11.306621 16.959932 22.613242) with tilt (1.6960863e-05 0 0)
Neighbor list info ...
  update: every = 1 steps, delay = 0 steps, check = yes
  max neighbors/atom: 2000, page size: 100000
  master list distance cutoff = 4.9258
  ghost atom cutoff = 4.9258
  1 neighbor lists, perpetual/occasional/extra = 1 0 0
  (1) pair sw, perpetual
      attributes: full, newton on
      pair build: full/nsq
      stencil: none
      bin: none
Setting up cg style minimization ...
  Unit style    : metal
  Current step  : 4
Per MPI rank memory allocation (min/avg/max) = 4.178 | 4.178 | 4.178 Mbytes
   Step          Temp          PotEng         Press           Pxx            Pyy            Pzz            Pxy            Pxz            Pyz             Lx             Ly             Lz           Volume          Fmax          Fnorm     
         4   0             -606.72         3.7921557e-05  3.8130662e-05  3.7179406e-05  3.8454604e-05 -0.89215659     0.26896462     0.18225952     11.307242      16.960863      22.614484      4337.019       0.00024082473  0.0020167659 
         5   0             -606.72         4.005269e-07   3.1965155e-07  3.3255383e-07  5.4937531e-07 -0.24086094    -0.06310366    -0.042758249    11.307242      16.960863      22.614484      4337.019       4.8128617e-05  0.00037758455
         6   0             -606.72        -1.934333e-07  -5.904613e-07   3.5003776e-08 -2.4842369e-08 -0.47831579     0.057970089    0.039280051    11.307242      16.960863      22.614484      4337.019       2.6484556e-05  0.00020779351
         7   0             -606.72        -1.9894981e-07 -3.0228633e-07 -1.8331645e-08 -2.7623144e-07 -0.25890043    -0.053906145   -0.036526282    11.307242      16.960863      22.614484      4337.019       1.870632e-05   0.00014433972
         8   0             -606.72        -7.9656379e-08 -4.3613673e-07  2.2061368e-07 -2.3446082e-08 -0.4310655      0.033878324    0.022955512    11.307242      16.960863      22.614484      4337.019       1.0506819e-05  8.467227e-05 
         9   0             -606.72        -1.5331092e-07 -3.5826991e-07  7.4892498e-08 -1.7655535e-07 -0.32270463    -0.021373632   -0.014482467    11.307242      16.960863      22.614484      4337.019       7.592216e-06   5.2522681e-05
        10   0             -606.72        -1.0614652e-07 -4.1061796e-07  1.4446746e-07 -5.228907e-08  -0.39105047     0.013475265    0.0091306383   11.307242      16.960863      22.614484      4337.019       4.8827391e-06  3.6577153e-05
        11   0             -606.72        -1.2803792e-07 -3.6650305e-07  1.0066236e-07 -1.1827308e-07 -0.34964702    -0.0076361007  -0.0051741075   11.307242      16.960863      22.614484      4337.019       2.6794093e-06  2.3605496e-05
        12   0             -606.72        -1.1508122e-07 -3.8858721e-07  1.2291496e-07 -7.957141e-08  -0.37238253     0.0039566981   0.0026810003   11.307242      16.960863      22.614484      4337.019       2.1663512e-06  1.5133143e-05
        13   0             -606.72        -1.2177593e-07 -3.7554664e-07  1.1012446e-07 -9.9905593e-08 -0.36048616    -0.0021093221  -0.0014292539   11.307242      16.960863      22.614484      4337.019       1.4811727e-06  1.091842e-05 
        14   0             -606.72        -1.173099e-07  -3.7988126e-07  1.1625829e-07 -8.8306716e-08 -0.36700913     0.0012168536   0.00082453221  11.307242      16.960863      22.614484      4337.019       1.2163845e-06  8.8538857e-06
        15   0             -606.72        -1.188377e-07  -3.7507378e-07  1.1242125e-07 -9.3860571e-08 -0.36333525    -0.00065661192 -0.00044492763  11.307242      16.960863      22.614484      4337.019       8.6695514e-07  6.9772552e-06
        16   0             -606.72        -1.1750367e-07 -3.7571517e-07  1.1411673e-07 -9.0912558e-08 -0.36537132     0.00038176622  0.00025869926  11.307242      16.960863      22.614484      4337.019       6.8294161e-07  5.3181618e-06
        17   0             -606.72        -1.1774172e-07 -3.740211e-07   1.1332593e-07 -9.2529988e-08 -0.36408569    -0.00027400974 -0.00018569142  11.307242      16.960863      22.614484      4337.019       6.3308922e-07  4.8269507e-06
        18   0             -606.72        -1.1705541e-07 -3.7378417e-07  1.1413816e-07 -9.1520227e-08 -0.36494189     0.00016284655  0.00011037343  11.307242      16.960863      22.614484      4337.019       4.6669915e-07  3.7510283e-06
        19   0             -606.72        -1.1717389e-07 -3.7315429e-07  1.1391457e-07 -9.228196e-08  -0.36442962    -9.8652667e-05 -6.6875563e-05  11.307242      16.960863      22.614484      4337.019       3.5806701e-07  2.9694022e-06
        20   0             -606.72        -1.1692147e-07 -3.7304882e-07  1.1424602e-07 -9.1961609e-08 -0.36471641     4.7871937e-05  3.24672e-05    11.307242      16.960863      22.614484      4337.019       2.9496696e-07  2.3591764e-06
        21   0             -606.72        -1.1699677e-07 -3.7288454e-07  1.1416131e-07 -9.2267077e-08 -0.36456789    -2.8178642e-05 -1.9129335e-05  11.307242      16.960863      22.614484      4337.019       2.3858077e-07  1.86199e-06  
        22   0             -606.72        -1.1694332e-07 -3.7289857e-07  1.1424656e-07 -9.2177956e-08 -0.36464858     1.3305294e-05  9.0493053e-06  11.307242      16.960863      22.614484      4337.019       1.7802686e-07  1.4020104e-06
        23   0             -606.72        -1.1694085e-07 -3.7280857e-07  1.1422956e-07 -9.224355e-08  -0.36461171    -5.8499975e-06 -4.0035455e-06  11.307242      16.960863      22.614484      4337.019       1.440609e-07   1.1812912e-06
        24   0             -606.72        -1.1692369e-07 -3.7279453e-07  1.142515e-07  -9.2228029e-08 -0.36462642     2.1154516e-06  1.4904373e-06  11.307242      16.960863      22.614484      4337.019       1.3444861e-07  9.9679259e-07
        25   0             -606.72        -1.1691111e-07 -3.7276185e-07  1.1425847e-07 -9.2229955e-08 -0.36462397     3.4334492e-07  1.8150544e-07  11.307242      16.960863      22.614484      4337.019       8.3017202e-08  6.9006152e-07
        26   0             -606.72        -1.1690082e-07 -3.7273624e-07  1.1426573e-07 -9.2231958e-08 -0.36461724    -2.4219702e-06 -1.55463e-06    11.307242      16.960863      22.614484      4337.019       8.8906128e-08  7.0025966e-07
        27   0             -606.72        -1.1690704e-07 -3.7275221e-07  1.1425895e-07 -9.2227865e-08 -0.36462995     3.2275271e-06  2.1020344e-06  11.307242      16.960863      22.614484      4337.019       5.5771452e-08  4.6549219e-07
        28   0             -606.72        -1.1690596e-07 -3.7272642e-07  1.1425458e-07 -9.2246033e-08 -0.36461473    -3.6926862e-06 -2.4137758e-06  11.307242      16.960863      22.614484      4337.019       5.26804e-08    3.3809788e-07
        29   0             -606.72        -1.1688854e-07 -3.7273655e-07  1.1427638e-07 -9.2205457e-08 -0.36463349     4.9040159e-06  3.2107345e-06  11.307242      16.960863      22.614484      4337.019       3.4652328e-08  2.7002204e-07
        30   0             -606.72        -1.1688734e-07 -3.7270642e-07  1.1426862e-07 -9.2224223e-08 -0.36461208    -4.9339649e-06 -3.2323697e-06  11.307242      16.960863      22.614484      4337.019       2.2448945e-08  1.8485414e-07
        31   0             -606.72        -1.1689837e-07 -3.7274655e-07  1.1426956e-07 -9.2218114e-08 -0.36463415     5.2182623e-06  3.4195866e-06  11.307242      16.960863      22.614484      4337.019       1.8848262e-08  1.4632259e-07
        32   0             -606.72        -1.1693011e-07 -3.7274479e-07  1.1422601e-07 -9.2271556e-08 -0.36461197    -4.99324e-06   -3.2727265e-06  11.307242      16.960863      22.614484      4337.019       1.4506499e-08  1.0676378e-07
        33   0             -606.72        -1.1691235e-07 -3.7275144e-07  1.1425034e-07 -9.2235956e-08 -0.36463087     3.7111812e-06  2.4326411e-06  11.307242      16.960863      22.614484      4337.019       8.8865542e-09  6.2332068e-08
        34   0             -606.72        -1.1690441e-07 -3.7272655e-07  1.1425284e-07 -9.2239512e-08 -0.36461575    -3.2510186e-06 -2.1311268e-06  11.307242      16.960863      22.614484      4337.019       7.1585497e-09  4.4298611e-08
        35   0             -606.72        -1.1690849e-07 -3.7274861e-07  1.1425184e-07 -9.2228706e-08 -0.36463088     3.719653e-06   2.4383966e-06  11.307242      16.960863      22.614484      4337.019       4.0453614e-09  3.0510387e-08
        36   0             -606.72        -1.1691362e-07 -3.7273402e-07  1.1424048e-07 -9.2247311e-08 -0.36461423    -3.9537026e-06 -2.5918171e-06  11.307242      16.960863      22.614484      4337.019       2.4357332e-09  1.8403322e-08
        37   0             -606.72        -1.1688733e-07 -3.7272634e-07  1.1427514e-07 -9.2210778e-08 -0.36463077     3.6691518e-06  2.4052844e-06  11.307242      16.960863      22.614484      4337.019       1.9487446e-09  1.2798344e-08
        38   0             -606.72        -1.1690784e-07 -3.7272683e-07  1.1424575e-07 -9.2242429e-08 -0.364617      -2.6781383e-06 -1.7556161e-06  11.307242      16.960863      22.614484      4337.019       1.1988429e-09  7.8033963e-09
        39   0             -606.72        -1.1689907e-07 -3.7273532e-07  1.142637e-07  -9.2225595e-08 -0.36462828     2.5210439e-06  1.6526228e-06  11.307242      16.960863      22.614484      4337.019       8.5216896e-10  6.0127754e-09
        40   0             -606.72        -1.169045e-07  -3.7273076e-07  1.1425384e-07 -9.2236565e-08 -0.36462015    -1.2264867e-06 -8.0404464e-07  11.307242      16.960863      22.614484      4337.019       4.7552273e-10  3.428869e-09 
        41   0             -606.72        -1.1688263e-07 -3.7271505e-07  1.1427735e-07 -9.2210185e-08 -0.3646245      7.7845277e-07  5.1042107e-07  11.307242      16.960863      22.614484      4337.019       2.6869078e-10  2.303591e-09 
        42   0             -606.72        -1.1690661e-07 -3.7273369e-07  1.1425616e-07 -9.2242306e-08 -0.36462164    -5.3737217e-07 -3.5248275e-07  11.307242      16.960863      22.614484      4337.019       2.560796e-10   1.8571283e-09
        43   0             -606.72        -1.1688835e-07 -3.7271892e-07  1.1427011e-07 -9.2216244e-08 -0.36462326     2.0609144e-07  1.3533512e-07  11.307242      16.960863      22.614484      4337.019       1.4599369e-10  1.0929364e-09
        44   0             -606.72        -1.1691955e-07 -3.7274816e-07  1.1423914e-07 -9.2249623e-08 -0.36462258    -1.0812501e-07 -7.1137248e-08  11.307242      16.960863      22.614484      4337.019       1.2141917e-10  7.9355056e-10
        45   0             -606.72        -1.169088e-07  -3.7273704e-07  1.1425069e-07 -9.2240046e-08 -0.36462292     5.0798719e-08  3.3621703e-08  11.307242      16.960863      22.614484      4337.019       7.7824768e-11  6.0606493e-10
        46   0             -606.72        -1.1690607e-07 -3.7273509e-07  1.1424914e-07 -9.2232273e-08 -0.36462275    -2.5735856e-08 -1.7256178e-08  11.307242      16.960863      22.614484      4337.019       6.5112113e-11  4.6044467e-10
        47   0             -606.72        -1.1691058e-07 -3.7274128e-07  1.142462e-07  -9.2236677e-08 -0.36462283     7.2153827e-09  5.0487701e-09  11.307242      16.960863      22.614484      4337.019       4.6794807e-11  2.9074879e-10
        48   0             -606.72        -1.1690728e-07 -3.727373e-07   1.1425506e-07 -9.2239604e-08 -0.3646228     -4.1898826e-09 -3.3948138e-09  11.307242      16.960863      22.614484      4337.019       4.7933412e-11  2.7035368e-10
        49   0             -606.72        -1.1692668e-07 -3.7275414e-07  1.1423306e-07 -9.225897e-08  -0.36462281     1.1506001e-09  1.3201977e-09  11.307242      16.960863      22.614484      4337.019       2.0175652e-11  1.6219262e-10
        50   0             -606.72        -1.1689648e-07 -3.7272412e-07  1.1426165e-07 -9.2226974e-08 -0.36462281    -4.6750324e-11 -6.0186535e-10  11.307242      16.960863      22.614484      4337.019       1.6248345e-11  1.1955901e-10
        51   0             -606.72        -1.1691008e-07 -3.727424e-07   1.1425046e-07 -9.2238312e-08 -0.36462281    -7.7062971e-10  4.1634599e-10  11.307242      16.960863      22.614484      4337.019       1.6144478e-11  1.116762e-10 
        52   0             -606.72        -1.1689768e-07 -3.7272746e-07  1.1426178e-07 -9.2227367e-08 -0.36462281     8.7987861e-10 -1.1030768e-10  11.307242      16.960863      22.614484      4337.019       8.4358236e-12  6.3917857e-11
Loop time of 0.00793261 on 3 procs for 48 steps with 192 atoms

97.0% CPU use with 3 MPI tasks x 1 OpenMP threads

Minimization stats:
  Stopping criterion = force tolerance
  Energy initial, next-to-last, final = 
     -606.719999875093  -606.719999987933  -606.719999987933
  Force two-norm initial, final = 0.0020167659 6.3917857e-11
  Force max component initial, final = 0.00024082473 8.4358236e-12
  Final line search alpha, max atom move = 1 8.4358236e-12
  Iterations, force evaluations = 48 96

MPI task timing breakdown:
Section |  min time  |  avg time  |  max time  |%varavg| %total
---------------------------------------------------------------
Pair    | 0.003508   | 0.003957   | 0.0042172  |   0.5 | 49.88
Neigh   | 0          | 0          | 0          |   0.0 |  0.00
Comm    | 0.0010903  | 0.0014252  | 0.0019077  |   0.9 | 17.97
Output  | 0.0010259  | 0.0012462  | 0.0016789  |   0.9 | 15.71
Modify  | 0          | 0          | 0          |   0.0 |  0.00
Other   |            | 0.001304   |            |       | 16.44

Nlocal:             64 ave          66 max          60 min
Histogram: 1 0 0 0 0 0 0 0 0 2
Nghost:        375.333 ave         400 max         363 min
Histogram: 2 0 0 0 0 0 0 0 0 1
Neighs:              0 ave           0 max           0 min
Histogram: 3 0 0 0 0 0 0 0 0 0
FullNghs:         1792 ave        1848 max        1680 min
Histogram: 1 0 0 0 0 0 0 0 0 2

Total # of neighbors = 5376
Ave neighs/atom = 28
Neighbor list builds = 0
Dangerous builds = 0
=========================================
Components of the Elastic Constant Tensor
=========================================
Elastic Constant C11all = 97.8095092229036 GPa
Elastic Constant C22all = 97.8095092238946 GPa
Elastic Constant C33all = 97.8095092231226 GPa
Elastic Constant C12all = 49.3632640841475 GPa
Elastic Constant C13all = 49.3632640838522 GPa
Elastic Constant C23all = 49.3632640848032 GPa
Elastic Constant C44all = 36.4622810592431 GPa
Elastic Constant C55all = 36.4622810594548 GPa
Elastic Constant C66all = 36.4622810187819 GPa
Elastic Constant C14all = 1.23350628166215e-08 GPa
Elastic Constant C15all = -6.86107180652038e-09 GPa
Elastic Constant C16all = 2.01115456794807e-08 GPa
Elastic Constant C24all = -1.85719135271181e-08 GPa
Elastic Constant C25all = -2.23463515119123e-09 GPa
Elastic Constant C26all = 3.42050533389248e-09 GPa
Elastic Constant C34all = 6.13779080493782e-09 GPa
Elastic Constant C35all = 4.4949246182959e-09 GPa
Elastic Constant C36all = 6.49360835354376e-09 GPa
Elastic Constant C45all = 1.26317766796381e-07 GPa
Elastic Constant C46all = -6.82309755453286e-08 GPa
Elastic Constant C56all = -1.36851960075995e-07 GPa
=========================================
Average properties for a cubic crystal
=========================================
Bulk Modulus = 65.5120124639474 GPa
Shear Modulus 1 = 36.4622810458266 GPa
Shear Modulus 2 = 24.2231225695197 GPa
Poisson Ratio = 0.335410300253729
Total wall time: 0:00:00
