(written by ASE)

2 atoms
1 atom types

0.0      4.3840620433565922  xlo xhi
0.0      3.7967091013139238  ylo yhi
0.0      3.5795716689756776  zlo zhi
     2.1920310216782961      2.1920310216782961      1.2655697004379747  xy xz yz

Atoms # atomic

     1   1                       0                       0                       0
     2   1      2.1920310216782961      1.2655697004379747     0.89489291724391962
