(written by ASE)

4 atoms
1 atom types

0.0      4.1499999999999986  xlo xhi
0.0      3.5940054257054195  ylo yhi
0.0      6.8458399999999973  zlo zhi
    -2.0749999999999988                       0                       0  xy xz yz

Atoms # atomic

     1   1 -3.3139795341159681e-17      2.3960036171369459     0.42998721039999988
     2   1      2.0749999999999993      1.1980018085684725      3.8529072103999988
     3   1 -3.3139795341159681e-17      2.3960036171369459      2.9929327895999984
     4   1      2.0749999999999993      1.1980018085684725    -0.42998721039999988
