(written by ASE)

1 atoms
1 atom types

0.0      2.8145825622994249  xlo xhi
0.0       2.653613888015109  ylo yhi
0.0      2.2980970388562789  zlo zhi
   -0.93819418743314165    -0.93819418743314165     -1.3268069440075545  xy xz yz

Atoms # atomic

     1   1                       0                       0                       0
