(written by ASE)

1 atoms
1 atom types

0.0      3.2880465325174439  xlo xhi
0.0      2.8475318259854427  ylo yhi
0.0      2.6846787517317581  zlo zhi
     1.6440232662587217      1.6440232662587217     0.94917727532848095  xy xz yz

Atoms # atomic

     1   1                       0                       0                       0
