(written by ASE)

4 atoms
1 atom types

0.0      3.9499999999999984  xlo xhi
0.0      3.4208003449485314  ylo yhi
0.0      6.5159199999999977  zlo zhi
     -1.974999999999999                       0                       0  xy xz yz

Atoms # atomic

     1   1  4.6210881508986417e-17      2.2805335632990213      0.4092649351999999
     2   1      1.9749999999999999      1.1402667816495105      3.6672249351999988
     3   1  4.6210881508986417e-17      2.2805335632990213      2.8486950647999989
     4   1      1.9749999999999999      1.1402667816495105     -0.4092649351999999
