(written by ASE)

1 atoms
1 atom types

0.0      2.8991378028648449  xlo xhi
0.0      2.5107269863527577  ylo yhi
0.0      2.3671361036774656  zlo zhi
     1.4495689014324222      1.4495689014324222     0.83690899545091924  xy xz yz

Atoms # atomic

     1   1                       0                       0                       0
