(written by ASE)

1 atoms
1 atom types

0.0      2.8284271247461898  xlo xhi
0.0      2.4494897427831779  ylo yhi
0.0      2.3094010767585029  zlo zhi
     1.4142135623730949      1.4142135623730949     0.81649658092772592  xy xz yz

Atoms # atomic

     1   1                       0                       0                       0
