(written by ASE)

2 atoms
1 atom types

0.0      2.9499999999999993  xlo xhi
0.0      2.5547749411640934  ylo yhi
0.0      4.8173298274735821  zlo zhi
    -1.4749999999999996                       0                       0  xy xz yz

Atoms # atomic

     1   1                       0                       0                       0
     2   1  1.7578531223231632e-17      1.7031832941093956       2.408664913736791
