(written by ASE)

2 atoms
1 atom types

0.0      4.8999999999999986  xlo xhi
0.0      4.8999999999999986  ylo yhi
0.0      1.3541149999999995  zlo zhi
                      0      2.4499999999999993      2.4499999999999993  xy xz yz

Atoms # atomic

     1   1                       0     -1.2249999999999996     0.33852874999999988
     2   1                       0      1.2249999999999996    -0.33852874999999988
