(written by ASE)

1 atoms
1 atom types

0.0      2.9698484809834991  xlo xhi
0.0      2.5719642299223366  ylo yhi
0.0      2.4248711305964279  zlo zhi
     1.4849242404917495      1.4849242404917495      0.8573214099741121  xy xz yz

Atoms # atomic

     1   1                       0                       0                       0
