(written by ASE)

8 atoms
1 atom types

0.0      5.6291651245988508  xlo xhi
0.0      5.3072277760302189  ylo yhi
0.0      4.5961940777125587  zlo zhi
     -1.876388374866284      -1.876388374866284     -2.6536138880151099  xy xz yz

Atoms # atomic

     1   1     0.38015628474790913     0.53762217371186127     0.93118892014456467
     2   1    -0.38015628474790913    -0.53762217371186127    -0.93118892014456467
     3   1      0.7359195206225565      2.6536138880151099  4.3713930673850262e-16
     4   1     -0.7359195206225565     -2.6536138880151099 -4.3713930673850262e-16
     5   1     -1.4962320901183748     0.25156259658383229      2.2980970388562794
     6   1      1.4962320901183748    -0.25156259658383229     -2.2980970388562794
     7   1      2.2565446596141929    -0.78918477029569345      1.3669081187117156
     8   1     -2.2565446596141929     0.78918477029569345     -1.3669081187117156
