(written by ASE)

2 atoms
1 atom types

0.0      3.1999999999999984  xlo xhi
0.0      2.7712812921102019  ylo yhi
0.0      5.2255781179374443  zlo zhi
    -1.5999999999999992                       0                       0  xy xz yz

Atoms # atomic

     1   1                       0                       0                       0
     2   1 -8.8817841970012553e-17      1.8475208614068013      2.6127890589687222
