(written by ASE)

2 atoms
1 atom types

0.0      3.8183766184073562  xlo xhi
0.0      3.3068111527572901  ylo yhi
0.0      3.1176914536239786  zlo zhi
     1.9091883092036781      1.9091883092036781        1.10227038425243  xy xz yz

Atoms # atomic

     1   1                       0                       0                       0
     2   1      1.9091883092036783        1.10227038425243     0.77942286340599476
