(written by ASE)

1 atoms
1 atom types

0.0      3.0405591591021537  xlo xhi
0.0      2.6332014734919156  ylo yhi
0.0      2.4826061575153902  zlo zhi
     1.5202795795510768      1.5202795795510768     0.87773382449730541  xy xz yz

Atoms # atomic

     1   1                       0                       0                       0
