(written by ASE)

1 atoms
1 atom types

0.0       3.160992723813199  xlo xhi
0.0       2.980212520386198  ylo yhi
0.0      2.5809397513308969  zlo zhi
    -1.0536642412710664     -1.0536642412710664     -1.4901062601930992  xy xz yz

Atoms # atomic

     1   1                       0                       0                       0
