(written by ASE)

4 atoms
1 atom types

0.0      4.4499999999999975  xlo xhi
0.0      3.8538130468407501  ylo yhi
0.0      7.3407199999999957  zlo zhi
    -2.2249999999999983                       0                       0  xy xz yz

Atoms # atomic

     1   1 -7.9376787883804059e-17      2.5692086978938331     0.46107062319999975
     2   1      2.2249999999999988      1.2846043489469161      4.1314306231999982
     3   1 -7.9376787883804059e-17      2.5692086978938331      3.2092893767999979
     4   1      2.2249999999999988      1.2846043489469161    -0.46107062319999975
