(written by ASE)

4 atoms
1 atom types

0.0      3.8499999999999992  xlo xhi
0.0      3.3341978045700884  ylo yhi
0.0      6.3509599999999988  zlo zhi
    -1.9249999999999994                       0                       0  xy xz yz

Atoms # atomic

     1   1  9.4371163377325425e-17      2.2227985363800586     0.39890379759999994
     2   1      1.9249999999999996      1.1113992681900289      3.5743837975999995
     3   1  9.4371163377325425e-17      2.2227985363800586      2.7765762023999994
     4   1      1.9249999999999996      1.1113992681900289    -0.39890379759999994
