(written by ASE)

4 atoms
1 atom types

0.0      4.2999999999999972  xlo xhi
0.0      3.7239092362730841  ylo yhi
0.0      7.0932799999999947  zlo zhi
    -2.1499999999999981                       0                       0  xy xz yz

Atoms # atomic

     1   1  1.0141506420021394e-17      2.4826061575153893     0.44552891679999967
     2   1      2.1499999999999986      1.2413030787576944      3.9921689167999972
     3   1  1.0141506420021394e-17      2.4826061575153893      3.1011110831999975
     4   1      2.1499999999999986      1.2413030787576944    -0.44552891679999967
