(written by ASE)

4 atoms
1 atom types

0.0      4.0999999999999979  xlo xhi
0.0      3.5507041555161964  ylo yhi
0.0       6.763359999999996  zlo zhi
    -2.0499999999999989                       0                       0  xy xz yz

Atoms # atomic

     1   1 -8.7231344310453275e-17      2.3671361036774647     0.42480664159999976
     2   1      2.0499999999999989      1.1835680518387321      3.8064866415999981
     3   1 -8.7231344310453275e-17      2.3671361036774647       2.956873358399998
     4   1      2.0499999999999989      1.1835680518387321    -0.42480664159999976
