(written by ASE)

8 atoms
1 atom types

0.0      5.7599999999999998  xlo xhi
0.0      5.7599999999999998  ylo yhi
0.0      5.7599999999999998  zlo zhi

Atoms # atomic

     1   1                       0                       0                       0
     2   1      1.4399999999999997      1.4399999999999997      1.4399999999999997
     3   1                       0      2.8799999999999994      2.8799999999999994
     4   1      1.4399999999999997      4.3199999999999994      4.3199999999999994
     5   1      2.8799999999999994                       0      2.8799999999999994
     6   1      4.3199999999999994      1.4399999999999997      4.3199999999999994
     7   1      2.8799999999999994      2.8799999999999994                       0
     8   1      4.3199999999999994      4.3199999999999994      1.4399999999999997
