LAMMPS data file via write_data, version 2 Aug 2023, timestep = 2, units = metal

8 atoms
1 atom types

0.00010894889113436201 5.759891051108865 xlo xhi
0.0001089487993505118 5.759891051200649 ylo yhi
0.0001089490460105797 5.759891050953989 zlo zhi

Masses

1 72.56

Atoms # atomic

1 1 5.759891051106633 0.0001089488058968817 0.00010894905602551973 -1 0 0
2 1 1.4400544744613046 1.4400544743904982 1.4400544745129717 0 0 0
7 1 2.879999999996103 2.8799999999969836 0.0001089490710118602 0 0 0
8 1 4.319945525549852 4.319945525605301 1.4400544745032515 0 0 0
3 1 0.00010894889814033642 2.8800000000038963 2.8799999999993764 0 0 0
5 1 2.8799999999998698 0.00010894880075528351 2.880000000002575 0 0 0
4 1 1.4400544744489847 4.319945525590262 4.319945525476181 0 0 0
6 1 4.319945525539109 1.4400544744051056 4.319945525470626 0 0 0

Velocities

1 0 0 0
2 0 0 0
7 0 0 0
8 0 0 0
3 0 0 0
5 0 0 0
4 0 0 0
6 0 0 0
