LAMMPS data file via write_data, version 2 Aug 2023, timestep = 68, units = metal

8 atoms
1 atom types

-0.1768105265694143 5.476810526569417 xlo xhi
-0.1768105265694143 5.476810526569417 ylo yhi
-0.1768105265694143 5.476810526569417 zlo zhi

Masses

1 72.64

Atoms # atomic

1 1 -0.1768105265694143 -0.1768105265694143 -0.1768105265694143 0 0 0
2 1 1.2365947367152939 1.2365947367152939 1.2365947367152939 0 0 0
7 1 2.6499999999999995 2.6499999999999995 -0.1768105265694143 0 0 0
8 1 4.063405263284706 4.063405263284706 1.2365947367152939 0 0 0
3 1 -0.1768105265694143 2.6499999999999995 2.6499999999999995 0 0 0
5 1 2.6499999999999995 -0.1768105265694143 2.6499999999999995 0 0 0
4 1 1.2365947367152939 4.063405263284706 4.063405263284706 0 0 0
6 1 4.063405263284706 1.2365947367152939 4.063405263284706 0 0 0

Velocities

1 0 0 0
2 0 0 0
7 0 0 0
8 0 0 0
3 0 0 0
5 0 0 0
4 0 0 0
6 0 0 0
