LAMMPS (2 Aug 2023 - Update 3)
OMP_NUM_THREADS environment is not set. Defaulting to 1 thread. (src/comm.cpp:98)
  using 1 OpenMP thread(s) per MPI task
OMP_NUM_THREADS environment is not set. Defaulting to 1 thread. (src/comm.cpp:98)
  using 1 OpenMP thread(s) per MPI task
Reading data file ...
  orthogonal box = (0 0 0) to (5.76 5.76 5.76)
  1 by 1 by 3 MPI processor grid
  reading atoms ...
  8 atoms
  read_data CPU = 0.008 seconds
Neighbor list info ...
  update: every = 1 steps, delay = 0 steps, check = yes
  max neighbors/atom: 20000, page size: 200000
  master list distance cutoff = 7
  ghost atom cutoff = 7
  binsize = 3.5, bins = 2 2 2
  1 neighbor lists, perpetual/occasional/extra = 1 0 0
  (1) pair quip, perpetual
      attributes: full, newton on
      pair build: full/bin/atomonly
      stencil: full/bin/3d
      bin: standard
WARNING: Proc sub-domain size < neighbor skin, could lead to lost atoms (src/domain.cpp:966)
Setting up cg style minimization ...
  Unit style    : metal
  Current step  : 0
WARNING: Energy due to 3 extra global DOFs will be included in minimizer energies
 (src/min.cpp:228)
Per MPI rank memory allocation (min/avg/max) = 4.479 | 4.48 | 4.48 Mbytes
    PotEng         Cella          Cellb          Cellc        CellAlpha       CellBeta      CellGamma   
-36.143774      5.76           5.76           5.76           90             90             90           
-36.143775      5.7597834      5.7597834      5.7597834      90             90             90           
-36.143775      5.7597821      5.7597821      5.7597821      90             90             90           
Loop time of 0.115508 on 3 procs for 2 steps with 8 atoms

91.8% CPU use with 3 MPI tasks x 1 OpenMP threads

Minimization stats:
  Stopping criterion = energy tolerance
  Energy initial, next-to-last, final = 
     -36.1437744596285  -36.1437749150669   -36.143774915347
  Force two-norm initial, final = 0.013879612 1.192642e-08
  Force max component initial, final = 0.0080133983 7.8339001e-09
  Final line search alpha, max atom move = 1 7.8339001e-09
  Iterations, force evaluations = 2 4

MPI task timing breakdown:
Section |  min time  |  avg time  |  max time  |%varavg| %total
---------------------------------------------------------------
Pair    | 0.10439    | 0.1079     | 0.11476    |   1.5 | 93.41
Neigh   | 0          | 0          | 0          |   0.0 |  0.00
Comm    | 0.00044537 | 0.0072932  | 0.0108     |   5.7 |  6.31
Output  | 2.0336e-05 | 2.0989e-05 | 2.1319e-05 |   0.0 |  0.02
Modify  | 0          | 0          | 0          |   0.0 |  0.00
Other   |            | 0.000293   |            |       |  0.25

Nlocal:        2.66667 ave           4 max           2 min
Histogram: 2 0 0 0 0 0 0 0 0 1
Nghost:            232 ave         235 max         228 min
Histogram: 1 0 0 0 0 0 0 1 0 1
Neighs:              0 ave           0 max           0 min
Histogram: 3 0 0 0 0 0 0 0 0 0
FullNghs:      122.667 ave         184 max          92 min
Histogram: 2 0 0 0 0 0 0 0 0 1

Total # of neighbors = 368
Ave neighs/atom = 46
Neighbor list builds = 0
Dangerous builds = 0
All done
5.75978210221773 5.7597821024013 5.75978210190798
System init for write_data ...
WARNING: Proc sub-domain size < neighbor skin, could lead to lost atoms (src/domain.cpp:966)
Total wall time: 0:00:00
