LAMMPS (2 Aug 2023 - Update 3)
OMP_NUM_THREADS environment is not set. Defaulting to 1 thread. (src/comm.cpp:98)
  using 1 OpenMP thread(s) per MPI task
OMP_NUM_THREADS environment is not set. Defaulting to 1 thread. (src/comm.cpp:98)
  using 1 OpenMP thread(s) per MPI task
Reading data file ...
  orthogonal box = (0 0 0) to (5.3 5.3 5.3)
  1 by 1 by 3 MPI processor grid
  reading atoms ...
  8 atoms
  read_data CPU = 0.015 seconds
Reading sw potential file /scratch/phys/t30429_nume-dft-ml/04-Ruoyan/00-MLP/04-short_range/ilearn/ilearn/potentials/params/SW/Ge.sw with DATE: 2025-10-10
Neighbor list info ...
  update: every = 1 steps, delay = 0 steps, check = yes
  max neighbors/atom: 20000, page size: 200000
  master list distance cutoff = 5.9258
  ghost atom cutoff = 5.9258
  binsize = 2.9629, bins = 2 2 2
  1 neighbor lists, perpetual/occasional/extra = 1 0 0
  (1) pair sw, perpetual
      attributes: full, newton on
      pair build: full/bin/atomonly
      stencil: full/bin/3d
      bin: standard
WARNING: Proc sub-domain size < neighbor skin, could lead to lost atoms (src/domain.cpp:966)
Setting up cg style minimization ...
  Unit style    : metal
  Current step  : 0
WARNING: Energy due to 3 extra global DOFs will be included in minimizer energies
 (src/min.cpp:228)
Per MPI rank memory allocation (min/avg/max) = 4.479 | 4.479 | 4.479 Mbytes
    PotEng         Cella          Cellb          Cellc        CellAlpha       CellBeta      CellGamma   
-23.806721      5.3            5.3            5.3            90             90             90           
-23.853005      5.3053         5.3053         5.3053         90             90             90           
-23.898527      5.3106         5.3106         5.3106         90             90             90           
-23.94328       5.3159         5.3159         5.3159         90             90             90           
-23.987257      5.3212         5.3212         5.3212         90             90             90           
-24.030453      5.3265         5.3265         5.3265         90             90             90           
-24.072865      5.3318         5.3318         5.3318         90             90             90           
-24.114491      5.3371         5.3371         5.3371         90             90             90           
-24.155327      5.3424         5.3424         5.3424         90             90             90           
-24.195374      5.3477         5.3477         5.3477         90             90             90           
-24.234632      5.353          5.353          5.353          90             90             90           
-24.273101      5.3583         5.3583         5.3583         90             90             90           
-24.310783      5.3636         5.3636         5.3636         90             90             90           
-24.347681      5.3689         5.3689         5.3689         90             90             90           
-24.383796      5.3742         5.3742         5.3742         90             90             90           
-24.419132      5.3795         5.3795         5.3795         90             90             90           
-24.453692      5.3848         5.3848         5.3848         90             90             90           
-24.487481      5.3901         5.3901         5.3901         90             90             90           
-24.520501      5.3954         5.3954         5.3954         90             90             90           
-24.552757      5.4007         5.4007         5.4007         90             90             90           
-24.584252      5.406          5.406          5.406          90             90             90           
-24.614992      5.4113         5.4113         5.4113         90             90             90           
-24.64498       5.4166         5.4166         5.4166         90             90             90           
-24.674221      5.4219         5.4219         5.4219         90             90             90           
-24.702718      5.4272         5.4272         5.4272         90             90             90           
-24.730475      5.4325         5.4325         5.4325         90             90             90           
-24.757498      5.4378         5.4378         5.4378         90             90             90           
-24.783789      5.4431         5.4431         5.4431         90             90             90           
-24.809353      5.4484         5.4484         5.4484         90             90             90           
-24.834195      5.4537         5.4537         5.4537         90             90             90           
-24.858317      5.459          5.459          5.459          90             90             90           
-24.881725      5.4643         5.4643         5.4643         90             90             90           
-24.904422      5.4696         5.4696         5.4696         90             90             90           
-24.926411      5.4749         5.4749         5.4749         90             90             90           
-24.947698      5.4802         5.4802         5.4802         90             90             90           
-24.968285      5.4855         5.4855         5.4855         90             90             90           
-24.988178      5.4908         5.4908         5.4908         90             90             90           
-25.007378      5.4961         5.4961         5.4961         90             90             90           
-25.025891      5.5014         5.5014         5.5014         90             90             90           
-25.043721      5.5067         5.5067         5.5067         90             90             90           
-25.06087       5.512          5.512          5.512          90             90             90           
-25.077342      5.5173         5.5173         5.5173         90             90             90           
-25.093143      5.5226         5.5226         5.5226         90             90             90           
-25.108274      5.5279         5.5279         5.5279         90             90             90           
-25.12274       5.5332         5.5332         5.5332         90             90             90           
-25.136545      5.5385         5.5385         5.5385         90             90             90           
-25.149691      5.5438         5.5438         5.5438         90             90             90           
-25.162183      5.5491         5.5491         5.5491         90             90             90           
-25.174025      5.5544         5.5544         5.5544         90             90             90           
-25.185219      5.5597         5.5597         5.5597         90             90             90           
-25.19577       5.565          5.565          5.565          90             90             90           
-25.20568       5.5703         5.5703         5.5703         90             90             90           
-25.214954      5.5756         5.5756         5.5756         90             90             90           
-25.223595      5.5809         5.5809         5.5809         90             90             90           
-25.231606      5.5862         5.5862         5.5862         90             90             90           
-25.238991      5.5915         5.5915         5.5915         90             90             90           
-25.245752      5.5968         5.5968         5.5968         90             90             90           
-25.251895      5.6021         5.6021         5.6021         90             90             90           
-25.257421      5.6074         5.6074         5.6074         90             90             90           
-25.262335      5.6127         5.6127         5.6127         90             90             90           
-25.266639      5.618          5.618          5.618          90             90             90           
-25.270336      5.6233         5.6233         5.6233         90             90             90           
-25.273431      5.6286         5.6286         5.6286         90             90             90           
-25.275927      5.6339         5.6339         5.6339         90             90             90           
-25.277826      5.6392         5.6392         5.6392         90             90             90           
-25.279132      5.6445         5.6445         5.6445         90             90             90           
-25.279848      5.6498         5.6498         5.6498         90             90             90           
-25.28          5.6536239      5.6536239      5.6536239      90             90             90           
-25.28          5.6536211      5.6536211      5.6536211      90             90             90           
Loop time of 0.00599554 on 3 procs for 68 steps with 8 atoms

93.4% CPU use with 3 MPI tasks x 1 OpenMP threads

Minimization stats:
  Stopping criterion = energy tolerance
  Energy initial, next-to-last, final = 
     -23.8067207997053   -25.279999999431  -25.2799999995177
  Force two-norm initial, final = 26.940978 5.2551415e-08
  Force max component initial, final = 15.554381 3.0340574e-08
  Final line search alpha, max atom move = 1 3.0340574e-08
  Iterations, force evaluations = 68 70

MPI task timing breakdown:
Section |  min time  |  avg time  |  max time  |%varavg| %total
---------------------------------------------------------------
Pair    | 0.00079975 | 0.0010347  | 0.0014786  |   1.0 | 17.26
Neigh   | 0          | 0          | 0          |   0.0 |  0.00
Comm    | 0.0018803  | 0.0023591  | 0.0026201  |   0.7 | 39.35
Output  | 0.00039906 | 0.00069982 | 0.0012836  |   0.0 | 11.67
Modify  | 0          | 0          | 0          |   0.0 |  0.00
Other   |            | 0.001902   |            |       | 31.72

Nlocal:        2.66667 ave           4 max           2 min
Histogram: 2 0 0 0 0 0 0 0 0 1
Nghost:            216 ave         228 max         209 min
Histogram: 1 1 0 0 0 0 0 0 0 1
Neighs:              0 ave           0 max           0 min
Histogram: 3 0 0 0 0 0 0 0 0 0
FullNghs:      122.667 ave         184 max          92 min
Histogram: 2 0 0 0 0 0 0 0 0 1

Total # of neighbors = 368
Ave neighs/atom = 46
Neighbor list builds = 0
Dangerous builds = 0
All done
5.65362105313883 5.65362105313883 5.65362105313883
System init for write_data ...
WARNING: Proc sub-domain size < neighbor skin, could lead to lost atoms (src/domain.cpp:966)
Total wall time: 0:00:00
