(written by ASE)

1 atoms
1 atom types

0.0      3.0310889132455339  xlo xhi
0.0      2.8577380332470397  ylo yhi
0.0      2.4748737341529154  zlo zhi
    -1.0103629710818445     -1.0103629710818445     -1.4288690166235196  xy xz yz

Atoms # atomic

     1   1                       0                       0                       0
