(written by ASE)

8 atoms
1 atom types

0.0      6.4951905283832874  xlo xhi
0.0      6.1237243569579425  ylo yhi
0.0      5.3033008588991049  zlo zhi
    -2.1650635094610955     -2.1650635094610955     -3.0618621784789712  xy xz yz

Atoms # atomic

     1   1     0.43864186701681801     0.62033327735983956      1.0744487540129584
     2   1    -0.43864186701681801    -0.62033327735983956     -1.0744487540129584
     3   1     0.84913790841064174      3.0618621784789712   -2.09082581241988e-16
     4   1    -0.84913790841064174     -3.0618621784789712    2.09082581241988e-16
     5   1     -1.7264216424442775     0.29026453451980666      2.6516504294495515
     6   1      1.7264216424442775    -0.29026453451980666     -2.6516504294495515
     7   1      2.6037053764779134    -0.91059781187964628      1.5772016754365932
     8   1     -2.6037053764779134     0.91059781187964628     -1.5772016754365932
