(written by ASE)

2 atoms
1 atom types

0.0      4.4547727214752468  xlo xhi
0.0      3.8579463448835032  ylo yhi
0.0      3.6373066958946403  zlo zhi
     2.2273863607376234      2.2273863607376234      1.2859821149611679  xy xz yz

Atoms # atomic

     1   1                       0                       0                       0
     2   1       2.227386360737623      1.2859821149611677     0.90932667397365996
