(written by ASE)

8 atoms
1 atom types

0.0      6.0621778264910695  xlo xhi
0.0      5.7154760664940811  ylo yhi
0.0      4.9497474683058318  zlo zhi
    -2.0207259421636898     -2.0207259421636898      -2.857738033247041  xy xz yz

Atoms # atomic

     1   1     0.40939907588236352     0.57897772553585036      1.0028188370787614
     2   1    -0.40939907588236352    -0.57897772553585036     -1.0028188370787614
     3   1     0.79252871451659901      2.8577380332470401  3.8018128115222761e-16
     4   1    -0.79252871451659901     -2.8577380332470401 -3.8018128115222761e-16
     5   1      -1.611326866281326     0.27091356555181928      2.4748737341529154
     6   1       1.611326866281326    -0.27091356555181928     -2.4748737341529154
     7   1       2.430125018046053     -0.8498912910876697      1.4720548970741538
     8   1      -2.430125018046053      0.8498912910876697     -1.4720548970741538
