(written by ASE)

2 atoms
1 atom types

0.0      4.1719300090006293  xlo xhi
0.0      3.6129973706051866  ylo yhi
0.0      3.4063665882187908  zlo zhi
     2.0859650045003142      2.0859650045003142      1.2043324568683955  xy xz yz

Atoms # atomic

     1   1                       0                       0                       0
     2   1      2.0859650045003142      1.2043324568683955     0.85159164705469781
