(written by ASE)

1 atoms
1 atom types

0.0      3.1176914536239773  xlo xhi
0.0       2.939387691339812  ylo yhi
0.0      2.5455844122715696  zlo zhi
    -1.0392304845413258     -1.0392304845413258      -1.469693845669906  xy xz yz

Atoms # atomic

     1   1                       0                       0                       0
