(written by ASE)

2 atoms
1 atom types

0.0       3.299999999999998  xlo xhi
0.0      2.8578838324886457  ylo yhi
0.0       5.388877434122989  zlo zhi
    -1.6499999999999988                       0                       0  xy xz yz

Atoms # atomic

     1   1                       0                       0                       0
     2   1 -8.6967470262303965e-17      1.9052558883257638      2.6944387170614945
