(written by ASE)

4 atoms
1 atom types

0.0      3.6000000000000001  xlo xhi
0.0       3.117691453623979  ylo yhi
0.0      5.9385599999999998  zlo zhi
    -1.7999999999999996                       0                       0  xy xz yz

Atoms # atomic

     1   1 -2.7344900035767912e-17       2.078460969082653     0.37300095360000002
     2   1                     1.8       1.039230484541326            3.3422809536
     3   1 -2.7344900035767912e-17       2.078460969082653      2.5962790463999998
     4   1                     1.8       1.039230484541326    -0.37300095360000002
