1
Lattice="0.019433527684847678 2.3097256878414814 2.2402875570820986 2.057988447080116 -0.13897367038991962 2.3199328263656773 2.098252928482818 2.231806141473872 -0.19238619774035853" Properties=species:S:1:pos:R:3:forces:R:3 virial="-0.9826853751693555 0.04836677358689761 0.040421580854828276 0.04836677358689761 -1.080890511651856 0.00805851565740127 0.040421580854828276 0.00805851565740127 -1.057993963314547" config_type=fcc_bulk energy=-4.0936654 stress="0.0427242152964513 -0.002102842374717543 -0.0017574092041076424 -0.002102842374717543 0.04699388033911324 -0.0003503601118082175 -0.0017574092041076424 -0.0003503601118082175 0.04599840703155516" free_energy=-4.09401418 pbc="T T T"
Ge       0.00000000       0.00000000       0.00000000      10.012       0.00000000      -0.00000000
