(written by ASE)

4 atoms
1 atom types

0.0      4.3499999999999979  xlo xhi
0.0      3.7672105064623067  ylo yhi
0.0      7.1757599999999959  zlo zhi
    -2.1749999999999985                       0                       0  xy xz yz

Atoms # atomic

     1   1  6.4233055389314988e-17      2.5114736709748704     0.45070948559999979
     2   1      2.1749999999999989      1.2557368354874345      4.0385894855999975
     3   1  6.4233055389314988e-17      2.5114736709748704      3.1371705143999979
     4   1      2.1749999999999989      1.2557368354874345    -0.45070948559999979
