(written by ASE)

1 atoms
1 atom types

0.0      3.0759144981614801  xlo xhi
0.0      2.6638200952767046  ylo yhi
0.0      2.5114736709748708  zlo zhi
     1.5379572490807403      1.5379572490807403     0.88794003175890157  xy xz yz

Atoms # atomic

     1   1                       0                       0                       0
