(written by ASE)

8 atoms
1 atom types

0.0       6.148780366869512  xlo xhi
0.0       5.797125724586853  ylo yhi
0.0      5.0204581464244855  zlo zhi
     -2.049593455623171      -2.049593455623171     -2.8985628622934265  xy xz yz

Atoms # atomic

     1   1     0.41524763410925453     0.58724883590064825      1.0171448204656011
     2   1    -0.41524763410925453    -0.58724883590064825     -1.0171448204656011
     3   1     0.80385055329540778      2.8985628622934265  5.2228677200188265e-17
     4   1    -0.80385055329540778     -2.8985628622934265 -5.2228677200188265e-17
     5   1     -1.6343458215139168     0.27478375934541688      2.5102290732122436
     6   1      1.6343458215139168    -0.27478375934541688     -2.5102290732122436
     7   1      2.4648410897324258    -0.86203259524606501      1.4930842527466424
     8   1     -2.4648410897324258     0.86203259524606501     -1.4930842527466424
