(written by ASE)

4 atoms
1 atom types

0.0      4.2499999999999982  xlo xhi
0.0      3.6806079660838629  ylo yhi
0.0       7.010799999999997  zlo zhi
    -2.1249999999999982                       0                       0  xy xz yz

Atoms # atomic

     1   1  1.5546630024077654e-17      2.4537386440559081     0.44034834799999983
     2   1      2.1249999999999991      1.2268693220279536      3.9457483479999986
     3   1  1.5546630024077654e-17      2.4537386440559081      3.0650516519999984
     4   1      2.1249999999999991      1.2268693220279536    -0.44034834799999983
