(written by ASE)

1 atoms
1 atom types

0.0      2.8578838324886466  xlo xhi
0.0       2.694438717061495  ylo yhi
0.0      2.3334523779156062  zlo zhi
   -0.95262794416288221    -0.95262794416288221     -1.3472193585307475  xy xz yz

Atoms # atomic

     1   1                       0                       0                       0
