(written by ASE)

1 atoms
1 atom types

0.0      3.0743901834347556  xlo xhi
0.0      2.8985628622934261  ylo yhi
0.0      2.5102290732122428  zlo zhi
    -1.0247967278115853     -1.0247967278115853      -1.449281431146713  xy xz yz

Atoms # atomic

     1   1                       0                       0                       0
