(written by ASE)

1 atoms
1 atom types

0.0      2.7279800219209811  xlo xhi
0.0      2.5719642299223366  ylo yhi
0.0      2.2273863607376243  zlo zhi
    -0.9093266739736604     -0.9093266739736604     -1.2859821149611681  xy xz yz

Atoms # atomic

     1   1                       0                       0                       0
