(written by ASE)

2 atoms
1 atom types

0.0        4.03050865276332  xlo xhi
0.0      3.4905228834660278  ylo yhi
0.0      3.2908965343808658  zlo zhi
     2.0152543263816596      2.0152543263816596      1.1635076278220096  xy xz yz

Atoms # atomic

     1   1                       0                       0                       0
     2   1      2.0152543263816596      1.1635076278220096     0.82272413359521646
