(written by ASE)

8 atoms
1 atom types

0.0      5.2999999999999998  xlo xhi
0.0      5.2999999999999998  ylo yhi
0.0      5.2999999999999998  zlo zhi

Atoms # atomic

     1   1                       0                       0                       0
     2   1                   1.325                   1.325                   1.325
     3   1                       0      2.6499999999999999      2.6499999999999999
     4   1                   1.325      3.9749999999999996      3.9749999999999996
     5   1      2.6499999999999999                       0      2.6499999999999999
     6   1      3.9749999999999996                   1.325      3.9749999999999996
     7   1      2.6499999999999999      2.6499999999999999                       0
     8   1      3.9749999999999996      3.9749999999999996                   1.325
