(written by ASE)

1 atoms
1 atom types

0.0      2.6846787517317594  xlo xhi
0.0      2.5311394008759502  ylo yhi
0.0       2.192031021678297  zlo zhi
   -0.89489291724391984    -0.89489291724391984     -1.2655697004379753  xy xz yz

Atoms # atomic

     1   1                       0                       0                       0
