(written by ASE)

2 atoms
1 atom types

0.0       3.959797974644665  xlo xhi
0.0      3.4292856398964484  ylo yhi
0.0      3.2331615074619036  zlo zhi
     1.9798989873223327      1.9798989873223327      1.1430952132988161  xy xz yz

Atoms # atomic

     1   1                       0                       0                       0
     2   1      1.9798989873223327      1.1430952132988161     0.80829037686547589
