(written by ASE)

8 atoms
1 atom types

0.0      5.7157676649772942  xlo xhi
0.0      5.3888774341229917  ylo yhi
0.0      4.6669047558312133  zlo zhi
    -1.9052558883257651     -1.9052558883257651     -2.6944387170614958  xy xz yz

Atoms # atomic

     1   1     0.38600484297479998     0.54589328407665905     0.94551490353140411
     2   1    -0.38600484297479998    -0.54589328407665905    -0.94551490353140411
     3   1     0.74724135940136505      2.6944387170614958  1.7535810252824926e-16
     4   1    -0.74724135940136505     -2.6944387170614958 -1.7535810252824926e-16
     5   1     -1.5192510453509651     0.25543279037742955      2.3334523779156067
     6   1      1.5192510453509651    -0.25543279037742955     -2.3334523779156067
     7   1      2.2912607313005653    -0.80132607445408854      1.3879374743842032
     8   1     -2.2912607313005653     0.80132607445408854     -1.3879374743842032
