(written by ASE)

1 atoms
1 atom types

0.0        2.94448637286709  xlo xhi
0.0      2.7760883751542673  ylo yhi
0.0      2.4041630560342604  zlo zhi
   -0.98149545762236334    -0.98149545762236334     -1.3880441875771337  xy xz yz

Atoms # atomic

     1   1                       0                       0                       0
