calculator: lammps
length_unit: angstrom
nqpoint: 404    
npath: 4      
segment_nqpoint:
- 101
- 101
- 101
- 101
reciprocal_lattice:
- [   0.00000000,   0.00000000,   0.30642750 ] # a*
- [   0.25019701,  -0.14445131,  -0.10214250 ] # b*
- [   0.00000000,   0.28890262,  -0.10214250 ] # c*
natom: 2      
lattice:
- [     1.998425184989419,     1.153791318508971,     3.263414661567439 ] # a
- [     3.996850369978840,     0.000000000000000,     0.000000000000000 ] # b
- [     1.998425184989419,     3.461373955526909,     0.000000000000000 ] # c
points:
- symbol: Ge # 1
  coordinates: [  0.000000000000000,  0.000000000000000,  0.000000000000000 ]
  mass: 72.640000
- symbol: Ge # 2
  coordinates: [  0.250000000000000,  0.250000000000000,  0.250000000000000 ]
  mass: 72.640000

phonon:
- q-position: [    0.0000000,    0.0000000,    0.0000000 ]
  distance:    0.0000000
  band:
  - # 1
    frequency:   -0.0015125761
  - # 2
    frequency:   -0.0015125760
  - # 3
    frequency:   -0.0015125760
  - # 4
    frequency:    8.7373339731
  - # 5
    frequency:    8.7373339731
  - # 6
    frequency:    8.7373339731

- q-position: [    0.0050000,    0.0000000,    0.0050000 ]
  distance:    0.0017692
  band:
  - # 1
    frequency:    0.0558329632
  - # 2
    frequency:    0.0558329632
  - # 3
    frequency:    0.0859296410
  - # 4
    frequency:    8.7370512391
  - # 5
    frequency:    8.7370512391
  - # 6
    frequency:    8.7373593711

- q-position: [    0.0100000,    0.0000000,    0.0100000 ]
  distance:    0.0035383
  band:
  - # 1
    frequency:    0.1116640290
  - # 2
    frequency:    0.1116640290
  - # 3
    frequency:    0.1718709397
  - # 4
    frequency:    8.7362035956
  - # 5
    frequency:    8.7362035956
  - # 6
    frequency:    8.7374349986

- q-position: [    0.0150000,    0.0000000,    0.0150000 ]
  distance:    0.0053075
  band:
  - # 1
    frequency:    0.1674230078
  - # 2
    frequency:    0.1674230078
  - # 3
    frequency:    0.2577911721
  - # 4
    frequency:    8.7347927185
  - # 5
    frequency:    8.7347927185
  - # 6
    frequency:    8.7375591582

- q-position: [    0.0200000,    0.0000000,    0.0200000 ]
  distance:    0.0070766
  band:
  - # 1
    frequency:    0.2230823645
  - # 2
    frequency:    0.2230823645
  - # 3
    frequency:    0.3436853287
  - # 4
    frequency:    8.7328213992
  - # 5
    frequency:    8.7328213992
  - # 6
    frequency:    8.7377290282

- q-position: [    0.0250000,    0.0000000,    0.0250000 ]
  distance:    0.0088458
  band:
  - # 1
    frequency:    0.2786104319
  - # 2
    frequency:    0.2786104319
  - # 3
    frequency:    0.4295457097
  - # 4
    frequency:    8.7302935427
  - # 5
    frequency:    8.7302935427
  - # 6
    frequency:    8.7379406734

- q-position: [    0.0300000,    0.0000000,    0.0300000 ]
  distance:    0.0106150
  band:
  - # 1
    frequency:    0.3339748155
  - # 2
    frequency:    0.3339748155
  - # 3
    frequency:    0.5153641342
  - # 4
    frequency:    8.7272141650
  - # 5
    frequency:    8.7272141650
  - # 6
    frequency:    8.7381890599

- q-position: [    0.0350000,    0.0000000,    0.0350000 ]
  distance:    0.0123841
  band:
  - # 1
    frequency:    0.3891428711
  - # 2
    frequency:    0.3891428711
  - # 3
    frequency:    0.6011322496
  - # 4
    frequency:    8.7235893888
  - # 5
    frequency:    8.7235893888
  - # 6
    frequency:    8.7384680747

- q-position: [    0.0400000,    0.0000000,    0.0400000 ]
  distance:    0.0141533
  band:
  - # 1
    frequency:    0.4440818179
  - # 2
    frequency:    0.4440818179
  - # 3
    frequency:    0.6868416016
  - # 4
    frequency:    8.7194264385
  - # 5
    frequency:    8.7194264385
  - # 6
    frequency:    8.7387705484

- q-position: [    0.0450000,    0.0000000,    0.0450000 ]
  distance:    0.0159224
  band:
  - # 1
    frequency:    0.4987587706
  - # 2
    frequency:    0.4987587706
  - # 3
    frequency:    0.7724836528
  - # 4
    frequency:    8.7147336347
  - # 5
    frequency:    8.7147336347
  - # 6
    frequency:    8.7390882823

- q-position: [    0.0500000,    0.0000000,    0.0500000 ]
  distance:    0.0176916
  band:
  - # 1
    frequency:    0.5531407487
  - # 2
    frequency:    0.5531407487
  - # 3
    frequency:    0.8580497863
  - # 4
    frequency:    8.7095203870
  - # 5
    frequency:    8.7095203870
  - # 6
    frequency:    8.7394120797

- q-position: [    0.0550000,    0.0000000,    0.0550000 ]
  distance:    0.0194608
  band:
  - # 1
    frequency:    0.6071946781
  - # 2
    frequency:    0.6071946781
  - # 3
    frequency:    0.9435313029
  - # 4
    frequency:    8.7037971856
  - # 5
    frequency:    8.7037971856
  - # 6
    frequency:    8.7397317799

- q-position: [    0.0600000,    0.0000000,    0.0600000 ]
  distance:    0.0212299
  band:
  - # 1
    frequency:    0.6608873906
  - # 2
    frequency:    0.6608873906
  - # 3
    frequency:    1.0289194176
  - # 4
    frequency:    8.6975755916
  - # 5
    frequency:    8.6975755916
  - # 6
    frequency:    8.7400362961

- q-position: [    0.0650000,    0.0000000,    0.0650000 ]
  distance:    0.0229991
  band:
  - # 1
    frequency:    0.7141856229
  - # 2
    frequency:    0.7141856229
  - # 3
    frequency:    1.1142052546
  - # 4
    frequency:    8.6908682260
  - # 5
    frequency:    8.6908682260
  - # 6
    frequency:    8.7403136561

- q-position: [    0.0700000,    0.0000000,    0.0700000 ]
  distance:    0.0247682
  band:
  - # 1
    frequency:    0.7670560175
  - # 2
    frequency:    0.7670560175
  - # 3
    frequency:    1.1993798437
  - # 4
    frequency:    8.6836887571
  - # 5
    frequency:    8.6836887571
  - # 6
    frequency:    8.7405510466

- q-position: [    0.0750000,    0.0000000,    0.0750000 ]
  distance:    0.0265374
  band:
  - # 1
    frequency:    0.8194651246
  - # 2
    frequency:    0.8194651246
  - # 3
    frequency:    1.2844341157
  - # 4
    frequency:    8.6760518859
  - # 5
    frequency:    8.6760518859
  - # 6
    frequency:    8.7407348595

- q-position: [    0.0800000,    0.0000000,    0.0800000 ]
  distance:    0.0283066
  band:
  - # 1
    frequency:    0.8713794062
  - # 2
    frequency:    0.8713794062
  - # 3
    frequency:    1.3693588996
  - # 4
    frequency:    8.6679733298
  - # 5
    frequency:    8.6679733298
  - # 6
    frequency:    8.7408507412

- q-position: [    0.0850000,    0.0000000,    0.0850000 ]
  distance:    0.0300757
  band:
  - # 1
    frequency:    0.9227652429
  - # 2
    frequency:    0.9227652429
  - # 3
    frequency:    1.4541449194
  - # 4
    frequency:    8.6594698041
  - # 5
    frequency:    8.6594698041
  - # 6
    frequency:    8.7408836434

- q-position: [    0.0900000,    0.0000000,    0.0900000 ]
  distance:    0.0318449
  band:
  - # 1
    frequency:    0.9735889429
  - # 2
    frequency:    0.9735889429
  - # 3
    frequency:    1.5387827931
  - # 4
    frequency:    8.6505590014
  - # 5
    frequency:    8.6505590014
  - # 6
    frequency:    8.7408178767

- q-position: [    0.0950000,    0.0000000,    0.0950000 ]
  distance:    0.0336140
  band:
  - # 1
    frequency:    1.0238167544
  - # 2
    frequency:    1.0238167544
  - # 3
    frequency:    1.6232630310
  - # 4
    frequency:    8.6412595683
  - # 5
    frequency:    8.6412595683
  - # 6
    frequency:    8.7406371654

- q-position: [    0.1000000,    0.0000000,    0.1000000 ]
  distance:    0.0353832
  band:
  - # 1
    frequency:    1.0734148814
  - # 2
    frequency:    1.0734148814
  - # 3
    frequency:    1.7075760357
  - # 4
    frequency:    8.6315910794
  - # 5
    frequency:    8.6315910794
  - # 6
    frequency:    8.7403247033

- q-position: [    0.1050000,    0.0000000,    0.1050000 ]
  distance:    0.0371524
  band:
  - # 1
    frequency:    1.1223495026
  - # 2
    frequency:    1.1223495026
  - # 3
    frequency:    1.7917121032
  - # 4
    frequency:    8.6215740091
  - # 5
    frequency:    8.6215740091
  - # 6
    frequency:    8.7398632116

- q-position: [    0.1100000,    0.0000000,    0.1100000 ]
  distance:    0.0389215
  band:
  - # 1
    frequency:    1.1705867940
  - # 2
    frequency:    1.1705867940
  - # 3
    frequency:    1.8756614240
  - # 4
    frequency:    8.6112296992
  - # 5
    frequency:    8.6112296992
  - # 6
    frequency:    8.7392349968

- q-position: [    0.1150000,    0.0000000,    0.1150000 ]
  distance:    0.0406907
  band:
  - # 1
    frequency:    1.2180929567
  - # 2
    frequency:    1.2180929567
  - # 3
    frequency:    1.9594140861
  - # 4
    frequency:    8.6005803241
  - # 5
    frequency:    8.6005803241
  - # 6
    frequency:    8.7384220092

- q-position: [    0.1200000,    0.0000000,    0.1200000 ]
  distance:    0.0424598
  band:
  - # 1
    frequency:    1.2648342474
  - # 2
    frequency:    1.2648342474
  - # 3
    frequency:    2.0429600782
  - # 4
    frequency:    8.5896488519
  - # 5
    frequency:    8.5896488519
  - # 6
    frequency:    8.7374059023

- q-position: [    0.1250000,    0.0000000,    0.1250000 ]
  distance:    0.0442290
  band:
  - # 1
    frequency:    1.3107770151
  - # 2
    frequency:    1.3107770151
  - # 3
    frequency:    2.1262892942
  - # 4
    frequency:    8.5784590021
  - # 5
    frequency:    8.5784590021
  - # 6
    frequency:    8.7361680914

- q-position: [    0.1300000,    0.0000000,    0.1300000 ]
  distance:    0.0459982
  band:
  - # 1
    frequency:    1.3558877415
  - # 2
    frequency:    1.3558877415
  - # 3
    frequency:    2.2093915385
  - # 4
    frequency:    8.5670351989
  - # 5
    frequency:    8.5670351989
  - # 6
    frequency:    8.7346898126

- q-position: [    0.1350000,    0.0000000,    0.1350000 ]
  distance:    0.0477673
  band:
  - # 1
    frequency:    1.4001330873
  - # 2
    frequency:    1.4001330873
  - # 3
    frequency:    2.2922565321
  - # 4
    frequency:    8.5554025210
  - # 5
    frequency:    8.5554025210
  - # 6
    frequency:    8.7329521812

- q-position: [    0.1400000,    0.0000000,    0.1400000 ]
  distance:    0.0495365
  band:
  - # 1
    frequency:    1.4434799436
  - # 2
    frequency:    1.4434799436
  - # 3
    frequency:    2.3748739199
  - # 4
    frequency:    8.5435866463
  - # 5
    frequency:    8.5435866463
  - # 6
    frequency:    8.7309362486

- q-position: [    0.1450000,    0.0000000,    0.1450000 ]
  distance:    0.0513056
  band:
  - # 1
    frequency:    1.4858954887
  - # 2
    frequency:    1.4858954887
  - # 3
    frequency:    2.4572332783
  - # 4
    frequency:    8.5316137923
  - # 5
    frequency:    8.5316137923
  - # 6
    frequency:    8.7286230594

- q-position: [    0.1500000,    0.0000000,    0.1500000 ]
  distance:    0.0530748
  band:
  - # 1
    frequency:    1.5273472508
  - # 2
    frequency:    1.5273472508
  - # 3
    frequency:    2.5393241240
  - # 4
    frequency:    8.5195106521
  - # 5
    frequency:    8.5195106521
  - # 6
    frequency:    8.7259937066

- q-position: [    0.1550000,    0.0000000,    0.1550000 ]
  distance:    0.0548440
  band:
  - # 1
    frequency:    1.5678031769
  - # 2
    frequency:    1.5678031769
  - # 3
    frequency:    2.6211359241
  - # 4
    frequency:    8.5073043253
  - # 5
    frequency:    8.5073043253
  - # 6
    frequency:    8.7230293853

- q-position: [    0.1600000,    0.0000000,    0.1600000 ]
  distance:    0.0566131
  band:
  - # 1
    frequency:    1.6072317074
  - # 2
    frequency:    1.6072317074
  - # 3
    frequency:    2.7026581056
  - # 4
    frequency:    8.4950222442
  - # 5
    frequency:    8.4950222442
  - # 6
    frequency:    8.7197114452

- q-position: [    0.1650000,    0.0000000,    0.1650000 ]
  distance:    0.0583823
  band:
  - # 1
    frequency:    1.6456018566
  - # 2
    frequency:    1.6456018566
  - # 3
    frequency:    2.7838800669
  - # 4
    frequency:    8.4826920949
  - # 5
    frequency:    8.4826920949
  - # 6
    frequency:    8.7160214409

- q-position: [    0.1700000,    0.0000000,    0.1700000 ]
  distance:    0.0601514
  band:
  - # 1
    frequency:    1.6828832997
  - # 2
    frequency:    1.6828832997
  - # 3
    frequency:    2.8647911895
  - # 4
    frequency:    8.4703417338
  - # 5
    frequency:    8.4703417338
  - # 6
    frequency:    8.7119411806

- q-position: [    0.1750000,    0.0000000,    0.1750000 ]
  distance:    0.0619206
  band:
  - # 1
    frequency:    1.7190464659
  - # 2
    frequency:    1.7190464659
  - # 3
    frequency:    2.9453808502
  - # 4
    frequency:    8.4579990993
  - # 5
    frequency:    8.4579990993
  - # 6
    frequency:    8.7074527725

- q-position: [    0.1800000,    0.0000000,    0.1800000 ]
  distance:    0.0636898
  band:
  - # 1
    frequency:    1.7540626367
  - # 2
    frequency:    1.7540626367
  - # 3
    frequency:    3.0256384339
  - # 4
    frequency:    8.4456921187
  - # 5
    frequency:    8.4456921187
  - # 6
    frequency:    8.7025386688

- q-position: [    0.1850000,    0.0000000,    0.1850000 ]
  distance:    0.0654589
  band:
  - # 1
    frequency:    1.7879040510
  - # 2
    frequency:    1.7879040510
  - # 3
    frequency:    3.1055533473
  - # 4
    frequency:    8.4334486109
  - # 5
    frequency:    8.4334486109
  - # 6
    frequency:    8.6971817073

- q-position: [    0.1900000,    0.0000000,    0.1900000 ]
  distance:    0.0672281
  band:
  - # 1
    frequency:    1.8205440144
  - # 2
    frequency:    1.8205440144
  - # 3
    frequency:    3.1851150325
  - # 4
    frequency:    8.4212961853
  - # 5
    frequency:    8.4212961853
  - # 6
    frequency:    8.6913651512

- q-position: [    0.1950000,    0.0000000,    0.1950000 ]
  distance:    0.0689972
  band:
  - # 1
    frequency:    1.8519570150
  - # 2
    frequency:    1.8519570150
  - # 3
    frequency:    3.2643129811
  - # 4
    frequency:    8.4092621364
  - # 5
    frequency:    8.4092621364
  - # 6
    frequency:    8.6850727249

- q-position: [    0.2000000,    0.0000000,    0.2000000 ]
  distance:    0.0707664
  band:
  - # 1
    frequency:    1.8821188424
  - # 2
    frequency:    1.8821188424
  - # 3
    frequency:    3.3431367494
  - # 4
    frequency:    8.3973733359
  - # 5
    frequency:    8.3973733359
  - # 6
    frequency:    8.6782886487

- q-position: [    0.2050000,    0.0000000,    0.2050000 ]
  distance:    0.0725356
  band:
  - # 1
    frequency:    1.9110067117
  - # 2
    frequency:    1.9110067117
  - # 3
    frequency:    3.4215759723
  - # 4
    frequency:    8.3856561219
  - # 5
    frequency:    8.3856561219
  - # 6
    frequency:    8.6709976694

- q-position: [    0.2100000,    0.0000000,    0.2100000 ]
  distance:    0.0743047
  band:
  - # 1
    frequency:    1.9385993905
  - # 2
    frequency:    1.9385993905
  - # 3
    frequency:    3.4996203792
  - # 4
    frequency:    8.3741361862
  - # 5
    frequency:    8.3741361862
  - # 6
    frequency:    8.6631850889

- q-position: [    0.2150000,    0.0000000,    0.2150000 ]
  distance:    0.0760739
  band:
  - # 1
    frequency:    1.9648773289
  - # 2
    frequency:    1.9648773289
  - # 3
    frequency:    3.5772598083
  - # 4
    frequency:    8.3628384607
  - # 5
    frequency:    8.3628384607
  - # 6
    frequency:    8.6548367895

- q-position: [    0.2200000,    0.0000000,    0.2200000 ]
  distance:    0.0778430
  band:
  - # 1
    frequency:    1.9898227908
  - # 2
    frequency:    1.9898227908
  - # 3
    frequency:    3.6544842226
  - # 4
    frequency:    8.3517870033
  - # 5
    frequency:    8.3517870033
  - # 6
    frequency:    8.6459392567

- q-position: [    0.2250000,    0.0000000,    0.2250000 ]
  distance:    0.0796122
  band:
  - # 1
    frequency:    2.0134199869
  - # 2
    frequency:    2.0134199869
  - # 3
    frequency:    3.7312837241
  - # 4
    frequency:    8.3410048846
  - # 5
    frequency:    8.3410048846
  - # 6
    frequency:    8.6364795989

- q-position: [    0.2300000,    0.0000000,    0.2300000 ]
  distance:    0.0813814
  band:
  - # 1
    frequency:    2.0356552068
  - # 2
    frequency:    2.0356552068
  - # 3
    frequency:    3.8076485697
  - # 4
    frequency:    8.3305140760
  - # 5
    frequency:    8.3305140760
  - # 6
    frequency:    8.6264455638

- q-position: [    0.2350000,    0.0000000,    0.2350000 ]
  distance:    0.0831505
  band:
  - # 1
    frequency:    2.0565169504
  - # 2
    frequency:    2.0565169504
  - # 3
    frequency:    3.8835691852
  - # 4
    frequency:    8.3203353412
  - # 5
    frequency:    8.3203353412
  - # 6
    frequency:    8.6158255526

- q-position: [    0.2400000,    0.0000000,    0.2400000 ]
  distance:    0.0849197
  band:
  - # 1
    frequency:    2.0759960573
  - # 2
    frequency:    2.0759960573
  - # 3
    frequency:    3.9590361806
  - # 4
    frequency:    8.3104881306
  - # 5
    frequency:    8.3104881306
  - # 6
    frequency:    8.6046086310

- q-position: [    0.2450000,    0.0000000,    0.2450000 ]
  distance:    0.0866888
  band:
  - # 1
    frequency:    2.0940858323
  - # 2
    frequency:    2.0940858323
  - # 3
    frequency:    4.0340403638
  - # 4
    frequency:    8.3009904815
  - # 5
    frequency:    8.3009904815
  - # 6
    frequency:    8.5927845373

- q-position: [    0.2500000,    0.0000000,    0.2500000 ]
  distance:    0.0884580
  band:
  - # 1
    frequency:    2.1107821665
  - # 2
    frequency:    2.1107821665
  - # 3
    frequency:    4.1085727547
  - # 4
    frequency:    8.2918589237
  - # 5
    frequency:    8.2918589237
  - # 6
    frequency:    8.5803436877

- q-position: [    0.2550000,    0.0000000,    0.2550000 ]
  distance:    0.0902272
  band:
  - # 1
    frequency:    2.1260836532
  - # 2
    frequency:    2.1260836532
  - # 3
    frequency:    4.1826245985
  - # 4
    frequency:    8.2831083931
  - # 5
    frequency:    8.2831083931
  - # 6
    frequency:    8.5672771788

- q-position: [    0.2600000,    0.0000000,    0.2600000 ]
  distance:    0.0919963
  band:
  - # 1
    frequency:    2.1399916959
  - # 2
    frequency:    2.1399916959
  - # 3
    frequency:    4.2561873785
  - # 4
    frequency:    8.2747521532
  - # 5
    frequency:    8.2747521532
  - # 6
    frequency:    8.5535767880

- q-position: [    0.2650000,    0.0000000,    0.2650000 ]
  distance:    0.0937655
  band:
  - # 1
    frequency:    2.1525106094
  - # 2
    frequency:    2.1525106094
  - # 3
    frequency:    4.3292528281
  - # 4
    frequency:    8.2668017255
  - # 5
    frequency:    8.2668017255
  - # 6
    frequency:    8.5392349703

- q-position: [    0.2700000,    0.0000000,    0.2700000 ]
  distance:    0.0955346
  band:
  - # 1
    frequency:    2.1636477115
  - # 2
    frequency:    2.1636477115
  - # 3
    frequency:    4.4018129425
  - # 4
    frequency:    8.2592668314
  - # 5
    frequency:    8.2592668314
  - # 6
    frequency:    8.5242448534

- q-position: [    0.2750000,    0.0000000,    0.2750000 ]
  distance:    0.0973038
  band:
  - # 1
    frequency:    2.1734134042
  - # 2
    frequency:    2.1734134042
  - # 3
    frequency:    4.4738599897
  - # 4
    frequency:    8.2521553441
  - # 5
    frequency:    8.2521553441
  - # 6
    frequency:    8.5086002299

- q-position: [    0.2800000,    0.0000000,    0.2800000 ]
  distance:    0.0990730
  band:
  - # 1
    frequency:    2.1818212448
  - # 2
    frequency:    2.1818212448
  - # 3
    frequency:    4.5453865195
  - # 4
    frequency:    8.2454732529
  - # 5
    frequency:    8.2454732529
  - # 6
    frequency:    8.4922955474

- q-position: [    0.2850000,    0.0000000,    0.2850000 ]
  distance:    0.1008421
  band:
  - # 1
    frequency:    2.1888880055
  - # 2
    frequency:    2.1888880055
  - # 3
    frequency:    4.6163853738
  - # 4
    frequency:    8.2392246404
  - # 5
    frequency:    8.2392246404
  - # 6
    frequency:    8.4753258964

- q-position: [    0.2900000,    0.0000000,    0.2900000 ]
  distance:    0.1026113
  band:
  - # 1
    frequency:    2.1946337194
  - # 2
    frequency:    2.1946337194
  - # 3
    frequency:    4.6868496936
  - # 4
    frequency:    8.2334116713
  - # 5
    frequency:    8.2334116713
  - # 6
    frequency:    8.4576869957

- q-position: [    0.2950000,    0.0000000,    0.2950000 ]
  distance:    0.1043804
  band:
  - # 1
    frequency:    2.1990817158
  - # 2
    frequency:    2.1990817158
  - # 3
    frequency:    4.7567729269
  - # 4
    frequency:    8.2280345958
  - # 5
    frequency:    8.2280345958
  - # 6
    frequency:    8.4393751763

- q-position: [    0.3000000,    0.0000000,    0.3000000 ]
  distance:    0.1061496
  band:
  - # 1
    frequency:    2.2022586404
  - # 2
    frequency:    2.2022586404
  - # 3
    frequency:    4.8261488346
  - # 4
    frequency:    8.2230917654
  - # 5
    frequency:    8.2230917654
  - # 6
    frequency:    8.4203873631

- q-position: [    0.3050000,    0.0000000,    0.3050000 ]
  distance:    0.1079188
  band:
  - # 1
    frequency:    2.2041944634
  - # 2
    frequency:    2.2041944634
  - # 3
    frequency:    4.8949714952
  - # 4
    frequency:    8.2185796620
  - # 5
    frequency:    8.2185796620
  - # 6
    frequency:    8.4007210548

- q-position: [    0.3100000,    0.0000000,    0.3100000 ]
  distance:    0.1096879
  band:
  - # 1
    frequency:    2.2049224735
  - # 2
    frequency:    2.2049224735
  - # 3
    frequency:    4.9632353095
  - # 4
    frequency:    8.2144929397
  - # 5
    frequency:    8.2144929397
  - # 6
    frequency:    8.3803743026

- q-position: [    0.3150000,    0.0000000,    0.3150000 ]
  distance:    0.1114571
  band:
  - # 1
    frequency:    2.2044792578
  - # 2
    frequency:    2.2044792578
  - # 3
    frequency:    5.0309350027
  - # 4
    frequency:    8.2108244796
  - # 5
    frequency:    8.2108244796
  - # 6
    frequency:    8.3593456868

- q-position: [    0.3200000,    0.0000000,    0.3200000 ]
  distance:    0.1132262
  band:
  - # 1
    frequency:    2.2029046694
  - # 2
    frequency:    2.2029046694
  - # 3
    frequency:    5.0980656263
  - # 4
    frequency:    8.2075654556
  - # 5
    frequency:    8.2075654556
  - # 6
    frequency:    8.3376342926

- q-position: [    0.3250000,    0.0000000,    0.3250000 ]
  distance:    0.1149954
  band:
  - # 1
    frequency:    2.2002417797
  - # 2
    frequency:    2.2002417797
  - # 3
    frequency:    5.1646225589
  - # 4
    frequency:    8.2047054119
  - # 5
    frequency:    8.2047054119
  - # 6
    frequency:    8.3152396843

- q-position: [    0.3300000,    0.0000000,    0.3300000 ]
  distance:    0.1167646
  band:
  - # 1
    frequency:    2.1965368190
  - # 2
    frequency:    2.1965368190
  - # 3
    frequency:    5.2306015047
  - # 4
    frequency:    8.2022323504
  - # 5
    frequency:    8.2022323504
  - # 6
    frequency:    8.2921618788

- q-position: [    0.3350000,    0.0000000,    0.3350000 ]
  distance:    0.1185337
  band:
  - # 1
    frequency:    2.1918391023
  - # 2
    frequency:    2.1918391023
  - # 3
    frequency:    5.2959984923
  - # 4
    frequency:    8.2001328274
  - # 5
    frequency:    8.2001328274
  - # 6
    frequency:    8.2684013176

- q-position: [    0.3400000,    0.0000000,    0.3400000 ]
  distance:    0.1203029
  band:
  - # 1
    frequency:    2.1862009431
  - # 2
    frequency:    2.1862009431
  - # 3
    frequency:    5.3608098712
  - # 4
    frequency:    8.1983920583
  - # 5
    frequency:    8.1983920583
  - # 6
    frequency:    8.2439588392

- q-position: [    0.3450000,    0.0000000,    0.3450000 ]
  distance:    0.1220720
  band:
  - # 1
    frequency:    2.1796775531
  - # 2
    frequency:    2.1796775531
  - # 3
    frequency:    5.4250323070
  - # 4
    frequency:    8.1969940295
  - # 5
    frequency:    8.1969940295
  - # 6
    frequency:    8.2188356490

- q-position: [    0.3500000,    0.0000000,    0.3500000 ]
  distance:    0.1238412
  band:
  - # 1
    frequency:    2.1723269293
  - # 2
    frequency:    2.1723269293
  - # 3
    frequency:    5.4886627767
  - # 4
    frequency:    8.1930332909
  - # 5
    frequency:    8.1959216163
  - # 6
    frequency:    8.1959216163

- q-position: [    0.3550000,    0.0000000,    0.3550000 ]
  distance:    0.1256104
  band:
  - # 1
    frequency:    2.1642097271
  - # 2
    frequency:    2.1642097271
  - # 3
    frequency:    5.5516985610
  - # 4
    frequency:    8.1665536168
  - # 5
    frequency:    8.1951567048
  - # 6
    frequency:    8.1951567048

- q-position: [    0.3600000,    0.0000000,    0.3600000 ]
  distance:    0.1273795
  band:
  - # 1
    frequency:    2.1553891207
  - # 2
    frequency:    2.1553891207
  - # 3
    frequency:    5.6141372368
  - # 4
    frequency:    8.1393987571
  - # 5
    frequency:    8.1946803179
  - # 6
    frequency:    8.1946803179

- q-position: [    0.3650000,    0.0000000,    0.3650000 ]
  distance:    0.1291487
  band:
  - # 1
    frequency:    2.1459306484
  - # 2
    frequency:    2.1459306484
  - # 3
    frequency:    5.6759766679
  - # 4
    frequency:    8.1115710902
  - # 5
    frequency:    8.1944727434
  - # 6
    frequency:    8.1944727434

- q-position: [    0.3700000,    0.0000000,    0.3700000 ]
  distance:    0.1309178
  band:
  - # 1
    frequency:    2.1359020437
  - # 2
    frequency:    2.1359020437
  - # 3
    frequency:    5.7372149948
  - # 4
    frequency:    8.0830732130
  - # 5
    frequency:    8.1945136633
  - # 6
    frequency:    8.1945136633

- q-position: [    0.3750000,    0.0000000,    0.3750000 ]
  distance:    0.1326870
  band:
  - # 1
    frequency:    2.1253730510
  - # 2
    frequency:    2.1253730510
  - # 3
    frequency:    5.7978506234
  - # 4
    frequency:    8.0539079112
  - # 5
    frequency:    8.1947822830
  - # 6
    frequency:    8.1947822830

- q-position: [    0.3800000,    0.0000000,    0.3800000 ]
  distance:    0.1344562
  band:
  - # 1
    frequency:    2.1144152252
  - # 2
    frequency:    2.1144152252
  - # 3
    frequency:    5.8578822126
  - # 4
    frequency:    8.0240781299
  - # 5
    frequency:    8.1952574606
  - # 6
    frequency:    8.1952574606

- q-position: [    0.3850000,    0.0000000,    0.3850000 ]
  distance:    0.1362253
  band:
  - # 1
    frequency:    2.1031017135
  - # 2
    frequency:    2.1031017135
  - # 3
    frequency:    5.9173086609
  - # 4
    frequency:    7.9935869447
  - # 5
    frequency:    8.1959178328
  - # 6
    frequency:    8.1959178328

- q-position: [    0.3900000,    0.0000000,    0.3900000 ]
  distance:    0.1379945
  band:
  - # 1
    frequency:    2.0915070192
  - # 2
    frequency:    2.0915070192
  - # 3
    frequency:    5.9761290923
  - # 4
    frequency:    7.9624375340
  - # 5
    frequency:    8.1967419402
  - # 6
    frequency:    8.1967419402

- q-position: [    0.3950000,    0.0000000,    0.3950000 ]
  distance:    0.1397636
  band:
  - # 1
    frequency:    2.0797067460
  - # 2
    frequency:    2.0797067460
  - # 3
    frequency:    6.0343428410
  - # 4
    frequency:    7.9306331514
  - # 5
    frequency:    8.1977083476
  - # 6
    frequency:    8.1977083476

- q-position: [    0.4000000,    0.0000000,    0.4000000 ]
  distance:    0.1415328
  band:
  - # 1
    frequency:    2.0677773213
  - # 2
    frequency:    2.0677773213
  - # 3
    frequency:    6.0919494357
  - # 4
    frequency:    7.8981770992
  - # 5
    frequency:    8.1987957618
  - # 6
    frequency:    8.1987957618

- q-position: [    0.4050000,    0.0000000,    0.4050000 ]
  distance:    0.1433020
  band:
  - # 1
    frequency:    2.0557956987
  - # 2
    frequency:    2.0557956987
  - # 3
    frequency:    6.1489485829
  - # 4
    frequency:    7.8650727030
  - # 5
    frequency:    8.1999831438
  - # 6
    frequency:    8.1999831438

- q-position: [    0.4100000,    0.0000000,    0.4100000 ]
  distance:    0.1450711
  band:
  - # 1
    frequency:    2.0438390369
  - # 2
    frequency:    2.0438390369
  - # 3
    frequency:    6.2053401496
  - # 4
    frequency:    7.8313232873
  - # 5
    frequency:    8.2012498173
  - # 6
    frequency:    8.2012498173

- q-position: [    0.4150000,    0.0000000,    0.4150000 ]
  distance:    0.1468403
  band:
  - # 1
    frequency:    2.0319843568
  - # 2
    frequency:    2.0319843568
  - # 3
    frequency:    6.2611241456
  - # 4
    frequency:    7.7969321525
  - # 5
    frequency:    8.2025755711
  - # 6
    frequency:    8.2025755711

- q-position: [    0.4200000,    0.0000000,    0.4200000 ]
  distance:    0.1486094
  band:
  - # 1
    frequency:    2.0203081747
  - # 2
    frequency:    2.0203081747
  - # 3
    frequency:    6.3163007054
  - # 4
    frequency:    7.7619025525
  - # 5
    frequency:    8.2039407564
  - # 6
    frequency:    8.2039407564

- q-position: [    0.4250000,    0.0000000,    0.4250000 ]
  distance:    0.1503786
  band:
  - # 1
    frequency:    2.0088861132
  - # 2
    frequency:    2.0088861132
  - # 3
    frequency:    6.3708700694
  - # 4
    frequency:    7.7262376749
  - # 5
    frequency:    8.2053263785
  - # 6
    frequency:    8.2053263785

- q-position: [    0.4300000,    0.0000000,    0.4300000 ]
  distance:    0.1521478
  band:
  - # 1
    frequency:    1.9977924904
  - # 2
    frequency:    1.9977924904
  - # 3
    frequency:    6.4248325651
  - # 4
    frequency:    7.6899406214
  - # 5
    frequency:    8.2067141824
  - # 6
    frequency:    8.2067141824

- q-position: [    0.4350000,    0.0000000,    0.4350000 ]
  distance:    0.1539169
  band:
  - # 1
    frequency:    1.9870998893
  - # 2
    frequency:    1.9870998893
  - # 3
    frequency:    6.4781885883
  - # 4
    frequency:    7.6530143905
  - # 5
    frequency:    8.2080867332
  - # 6
    frequency:    8.2080867332

- q-position: [    0.4400000,    0.0000000,    0.4400000 ]
  distance:    0.1556861
  band:
  - # 1
    frequency:    1.9768787099
  - # 2
    frequency:    1.9768787099
  - # 3
    frequency:    6.5309385837
  - # 4
    frequency:    7.6154618615
  - # 5
    frequency:    8.2094274899
  - # 6
    frequency:    8.2094274899

- q-position: [    0.4450000,    0.0000000,    0.4450000 ]
  distance:    0.1574552
  band:
  - # 1