ITEM: TIMESTEP
0
ITEM: NUMBER OF ATOMS
432
ITEM: BOX BOUNDS xy xz yz pp pp pp
0.0000000000000000e+00 4.7962204439746095e+01 1.1990551109936526e+01
0.0000000000000000e+00 2.7690991644215273e+01 1.1990551109936526e+01
0.0000000000000000e+00 1.9580487969404643e+01 6.9227479110538219e+00
ITEM: ATOMS id type x y z fx fy fz
1 1      0.01000000      0.00000000      0.00000000     -0.11855037     -0.00118452     -0.00083758
7 1      1.99842518      3.46137396      0.00000000     -0.00065203      0.00204204     -0.00173631
37 1      1.99842518      1.15379132      3.26341466     -0.00065203     -0.00095633      0.00250403
217 1      1.99842518      1.15379132      0.81585367      0.05097313      0.02564089      0.01813085
2 1      3.99685037      0.00000000      0.00000000      0.00365995      0.00044844      0.00031709
8 1      5.99527555      3.46137396      0.00000000      0.00007647      0.00000771     -0.00004455
38 1      5.99527555      1.15379132      3.26341466      0.00007646     -0.00003943      0.00002212
43 1      3.99685037      4.61516527      3.26341466     -0.00005664     -0.00007118     -0.00005034
218 1      5.99527555      1.15379132      0.81585367      0.00022092     -0.00044749     -0.00031642
223 1      3.99685037      4.61516527      0.81585367      0.00030384     -0.00049257      0.00048643
253 1      3.99685037      2.30758264      4.07926833      0.00030384      0.00029443     -0.00062654
3 1      7.99370074      0.00000000      0.00000000     -0.00000579     -0.00002892     -0.00002045
9 1      9.99212592      3.46137396      0.00000000     -0.00000000      0.00000000     -0.00000000
39 1      9.99212592      1.15379132      3.26341466     -0.00000000      0.00000000     -0.00000000
44 1      7.99370074      4.61516527      3.26341466     -0.00000000      0.00000000     -0.00000000
219 1      9.99212592      1.15379132      0.81585367     -0.00000000     -0.00000000      0.00000000
224 1      7.99370074      4.61516527      0.81585367     -0.00000000      0.00000000     -0.00000000
254 1      7.99370074      2.30758264      4.07926833     -0.00000000     -0.00000000     -0.00000000
4 1     11.99055111      0.00000000      0.00000000      0.00000000      0.00000000     -0.00000000
10 1     13.98897629      3.46137396      0.00000000      0.00000000      0.00000000     -0.00000000
40 1     13.98897629      1.15379132      3.26341466      0.00000000      0.00000000      0.00000000
45 1     11.99055111      4.61516527      3.26341466     -0.00000000      0.00000000      0.00000000
220 1     13.98897629      1.15379132      0.81585367      0.00000000     -0.00000000     -0.00000000
225 1     11.99055111      4.61516527      0.81585367      0.00000000     -0.00000000      0.00000000
255 1     11.99055111      2.30758264      4.07926833     -0.00000000      0.00000000      0.00000000
5 1     15.98740148      0.00000000      0.00000000     -0.00001417      0.00002877      0.00002034
46 1     15.98740148      4.61516527      3.26341466      0.00000000      0.00000000      0.00000000
221 1     17.98582666      1.15379132      0.81585367      0.00019790      0.00044154      0.00031221
226 1     15.98740148      4.61516527      0.81585367      0.00000000     -0.00000000      0.00000000
256 1     15.98740148      2.30758264      4.07926833      0.00000000      0.00000000     -0.00000000
6 1     19.98425185      0.00000000      0.00000000      0.00360557     -0.00043281     -0.00030604
11 1     17.98582666      3.46137396      0.00000000      0.00007649     -0.00000956      0.00004374
41 1     17.98582666      1.15379132      3.26341466      0.00007649      0.00003805     -0.00002359
47 1     19.98425185      4.61516527      3.26341466     -0.00005357      0.00006766      0.00004784
227 1     19.98425185      4.61516527      0.81585367      0.00029355      0.00050106     -0.00047965
257 1     19.98425185      2.30758264      4.07926833      0.00029355     -0.00028520      0.00063229
12 1     21.98267703      3.46137396      0.00000000     -0.00066629     -0.00203286      0.00172245
42 1     21.98267703      1.15379132      3.26341466     -0.00066628      0.00094632     -0.00249075
48 1     23.98110222      4.61516527      3.26341466      0.00006149      0.00000035      0.00000024
222 1     21.98267703      1.15379132      0.81585367      0.04963191     -0.02462070     -0.01740946
228 1     23.98110222      4.61516527      0.81585367     -0.00109525      0.00000684      0.00000695
258 1     23.98110222      2.30758264      4.07926833     -0.00109525      0.00000884      0.00000413
13 1      3.99685037      6.92274791      0.00000000     -0.00007028      0.00006536     -0.00002962
49 1      5.99527555      8.07653923      3.26341466      0.00000000     -0.00000000      0.00000000
229 1      5.99527555      8.07653923      0.81585367      0.00000000      0.00000000      0.00000000
259 1      5.99527555      5.76895659      4.07926833      0.00000000     -0.00000000     -0.00000000
14 1      7.99370074      6.92274791      0.00000000      0.00000000     -0.00000000     -0.00000000
50 1      9.99212592      8.07653923      3.26341466     -0.00000000     -0.00000000      0.00000000
230 1      9.99212592      8.07653923      0.81585367     -0.00000000      0.00000000      0.00000000
260 1      9.99212592      5.76895659      4.07926833     -0.00000000      0.00000000     -0.00000000
265 1      7.99370074      9.23033055      4.07926833     -0.00000000     -0.00000000      0.00000000
15 1     11.99055111      6.92274791      0.00000000     -0.00000000      0.00000000     -0.00000000
51 1     13.98897629      8.07653923      3.26341466     -0.00000000     -0.00000000      0.00000000
231 1     13.98897629      8.07653923      0.81585367      0.00000000      0.00000000      0.00000000
261 1     13.98897629      5.76895659      4.07926833     -0.00000000     -0.00000000     -0.00000000
266 1     11.99055111      9.23033055      4.07926833      0.00000000     -0.00000000     -0.00000000
16 1     15.98740148      6.92274791      0.00000000      0.00000000     -0.00000000     -0.00000000
267 1     15.98740148      9.23033055      4.07926833      0.00000000     -0.00000000      0.00000000
17 1     19.98425185      6.92274791      0.00000000     -0.00007082     -0.00006214      0.00002916
52 1     17.98582666      8.07653923      3.26341466     -0.00000000      0.00000000     -0.00000000
232 1     17.98582666      8.07653923      0.81585367     -0.00000000      0.00000000      0.00000000
262 1     17.98582666      5.76895659      4.07926833      0.00000000     -0.00000000     -0.00000000
268 1     19.98425185      9.23033055      4.07926833      0.00000000      0.00000000     -0.00000000
18 1     23.98110222      6.92274791      0.00000000      0.00006159      0.00000022     -0.00000077
53 1     21.98267703      8.07653923      3.26341466     -0.00000002      0.00000014      0.00000005
233 1     21.98267703      8.07653923      0.81585367      0.00000507      0.00001938      0.00000449
263 1     21.98267703      5.76895659      4.07926833      0.00000133      0.00002313      0.00001635
269 1     23.98110222      9.23033055      4.07926833      0.00000000     -0.00000000      0.00000000
54 1     25.97952740      8.07653923      3.26341466     -0.00000002     -0.00000014     -0.00000005
234 1     25.97952740      8.07653923      0.81585367      0.00000517     -0.00001968     -0.00000456
264 1     25.97952740      5.76895659      4.07926833      0.00000145     -0.00002314     -0.00001636
270 1     27.97795259      9.23033055      4.07926833      0.00000000      0.00000000     -0.00000000
73 1      3.99685037      2.30758264      6.52682932     -0.00007028     -0.00000613      0.00007150
289 1      5.99527555      3.46137396      7.34268299     -0.00000000     -0.00000000     -0.00000000
74 1      7.99370074      2.30758264      6.52682932      0.00000000      0.00000000     -0.00000000
290 1      9.99212592      3.46137396      7.34268299     -0.00000000     -0.00000000     -0.00000000
75 1     11.99055111      2.30758264      6.52682932     -0.00000000      0.00000000      0.00000000
291 1     13.98897629      3.46137396      7.34268299      0.00000000      0.00000000     -0.00000000
76 1     15.98740148      2.30758264      6.52682932     -0.00000000      0.00000000     -0.00000000
77 1     19.98425185      2.30758264      6.52682932     -0.00007082      0.00000678     -0.00006831
292 1     17.98582666      3.46137396      7.34268299     -0.00000000     -0.00000000     -0.00000000
78 1     23.98110222      2.30758264      6.52682932      0.00006159     -0.00000065      0.00000047
293 1     21.98267703      3.46137396      7.34268299      0.00000507      0.00001069      0.00001677
294 1     25.97952740      3.46137396      7.34268299      0.00000517     -0.00001086     -0.00001703
79 1      5.99527555      5.76895659      6.52682932      0.00000000      0.00000000      0.00000000
80 1      9.99212592      5.76895659      6.52682932      0.00000000      0.00000000      0.00000000
85 1      7.99370074      9.23033055      6.52682932     -0.00000000      0.00000000      0.00000000
295 1      7.99370074      6.92274791      7.34268299      0.00000000     -0.00000000     -0.00000000
81 1     13.98897629      5.76895659      6.52682932      0.00000000      0.00000000      0.00000000
86 1     11.99055111      9.23033055      6.52682932     -0.00000000      0.00000000      0.00000000
296 1     11.99055111      6.92274791      7.34268299      0.00000000      0.00000000     -0.00000000
87 1     15.98740148      9.23033055      6.52682932     -0.00000000     -0.00000000      0.00000000
297 1     15.98740148      6.92274791      7.34268299     -0.00000000     -0.00000000     -0.00000000
82 1     17.98582666      5.76895659      6.52682932      0.00000000      0.00000000      0.00000000
88 1     19.98425185      9.23033055      6.52682932     -0.00000000      0.00000000      0.00000000
298 1     19.98425185      6.92274791      7.34268299     -0.00000000     -0.00000000     -0.00000000
83 1     21.98267703      5.76895659      6.52682932     -0.00000002      0.00000009      0.00000012
89 1     23.98110222      9.23033055      6.52682932      0.00000000      0.00000000      0.00000000
299 1     23.98110222      6.92274791      7.34268299     -0.00000000      0.00000000     -0.00000001
84 1     25.97952740      5.76895659      6.52682932     -0.00000002     -0.00000010     -0.00000011
90 1     27.97795259      9.23033055      6.52682932      0.00000000      0.00000000      0.00000000
300 1     27.97795259      6.92274791      7.34268299     -0.00000000     -0.00000000     -0.00000000
91 1      9.99212592     12.69170450      6.52682932      0.00000000     -0.00000000      0.00000000
301 1      9.99212592     10.38412187      7.34268299      0.00000000     -0.00000000     -0.00000000
92 1     13.98897629     12.69170450      6.52682932      0.00000000     -0.00000000      0.00000000
302 1     13.98897629     10.38412187      7.34268299     -0.00000000     -0.00000000     -0.00000000
93 1     17.98582666     12.69170450      6.52682932      0.00000000     -0.00000000      0.00000000
303 1     17.98582666     10.38412187      7.34268299     -0.00000000     -0.00000000     -0.00000000
94 1     21.98267703     12.69170450      6.52682932     -0.00000000      0.00000000      0.00000000
304 1     21.98267703     10.38412187      7.34268299     -0.00000000     -0.00000000     -0.00000000
95 1     25.97952740     12.69170450      6.52682932     -0.00000000      0.00000000      0.00000000
305 1     25.97952740     10.38412187      7.34268299      0.00000000     -0.00000000     -0.00000000
96 1     29.97637777     12.69170450      6.52682932     -0.00000000      0.00000000     -0.00000000
306 1     29.97637777     10.38412187      7.34268299     -0.00000000     -0.00000000     -0.00000000
109 1      5.99527555      3.46137396      9.79024398      0.00000000      0.00000000      0.00000000
115 1      7.99370074      6.92274791      9.79024398     -0.00000000      0.00000000      0.00000000
145 1      7.99370074      4.61516527     13.05365865     -0.00007058     -0.00000663      0.00000754
325 1      7.99370074      4.61516527     10.60609765     -0.00000000      0.00000000     -0.00000000
110 1      9.99212592      3.46137396      9.79024398     -0.00000000      0.00000000      0.00000000
116 1     11.99055111      6.92274791      9.79024398     -0.00000000      0.00000000     -0.00000000
146 1     11.99055111      4.61516527     13.05365865      0.00006160     -0.00000003     -0.00000012
326 1     11.99055111      4.61516527     10.60609765      0.00000000      0.00000000     -0.00000000
331 1      9.99212592      8.07653923     10.60609765     -0.00000000     -0.00000000     -0.00000001
361 1      9.99212592      5.76895659     13.86951231      0.00106536      0.00073220     -0.00031527
111 1     13.98897629      3.46137396      9.79024398      0.00000000      0.00000000      0.00000000
117 1     15.98740148      6.92274791      9.79024398      0.00000000      0.00000000     -0.00000000
147 1     15.98740148      4.61516527     13.05365865     -0.00007053      0.00000629     -0.00000988
327 1     15.98740148      4.61516527     10.60609765     -0.00000000      0.00000000     -0.00000000
332 1     13.98897629      8.07653923     10.60609765     -0.00000000     -0.00000000     -0.00000000
362 1     13.98897629      5.76895659     13.86951231      0.00107189     -0.00073649      0.00031218
112 1     17.98582666      3.46137396      9.79024398      0.00000000      0.00000000      0.00000000
118 1     19.98425185      6.92274791      9.79024398     -0.00000000      0.00000000     -0.00000000
148 1     19.98425185      4.61516527     13.05365865      0.00000000      0.00000000      0.00000000
328 1     19.98425185      4.61516527     10.60609765      0.00000000     -0.00000000     -0.00000000
333 1     17.98582666      8.07653923     10.60609765      0.00000000      0.00000000     -0.00000001
363 1     17.98582666      5.76895659     13.86951231     -0.00001213      0.00000965      0.00002857
113 1     21.98267703      3.46137396      9.79024398     -0.00000000      0.00000000      0.00000000
329 1     23.98110222      4.61516527     10.60609765      0.00000000     -0.00000000     -0.00000000
334 1     21.98267703      8.07653923     10.60609765     -0.00000000     -0.00000000     -0.00000000
364 1     21.98267703      5.76895659     13.86951231     -0.00000000      0.00000000     -0.00000000
114 1     25.97952740      3.46137396      9.79024398     -0.00000000      0.00000000      0.00000000
119 1     23.98110222      6.92274791      9.79024398     -0.00000000      0.00000000     -0.00000000
149 1     23.98110222      4.61516527     13.05365865      0.00000000      0.00000000      0.00000000
335 1     25.97952740      8.07653923     10.60609765      0.00000000     -0.00000000     -0.00000000
365 1     25.97952740      5.76895659     13.86951231      0.00000000      0.00000000     -0.00000000
120 1     27.97795259      6.92274791      9.79024398     -0.00000000      0.00000000      0.00000000
150 1     27.97795259      4.61516527     13.05365865     -0.00000000      0.00000000      0.00000000
330 1     27.97795259      4.61516527     10.60609765     -0.00000000      0.00000000     -0.00000000
336 1     29.97637777      8.07653923     10.60609765     -0.00000000     -0.00000000     -0.00000000
366 1     29.97637777      5.76895659     13.86951231     -0.00001180     -0.00000916     -0.00002718
121 1      9.99212592     10.38412187      9.79024398      0.00000000      0.00000000      0.00000000
151 1      9.99212592      8.07653923     13.05365865      0.00010521     -0.00002578      0.00014782
157 1     11.99055111     11.53791319     13.05365865     -0.00005937     -0.00000007      0.00000002
337 1     11.99055111     11.53791319     10.60609765      0.00000000     -0.00000000     -0.00000000
367 1     11.99055111      9.23033055     13.86951231     -0.00020324      0.00000284     -0.00000514
122 1     13.98897629     10.38412187      9.79024398      0.00000000     -0.00000000      0.00000000
152 1     13.98897629      8.07653923     13.05365865      0.00010348      0.00002358     -0.00014379
158 1     15.98740148     11.53791319     13.05365865      0.00000024      0.00000005     -0.00000031
338 1     15.98740148     11.53791319     10.60609765     -0.00000000      0.00000000     -0.00000000
368 1     15.98740148      9.23033055     13.86951231      0.00000644     -0.00001371      0.00002670
373 1     13.98897629     12.69170450     13.86951231      0.00000499     -0.00000038      0.00001182
123 1     17.98582666     10.38412187      9.79024398     -0.00000000      0.00000000      0.00000000
153 1     17.98582666      8.07653923     13.05365865      0.00000027      0.00000026     -0.00000051
159 1     19.98425185     11.53791319     13.05365865     -0.00000000      0.00000000      0.00000000
339 1     19.98425185     11.53791319     10.60609765     -0.00000000      0.00000000     -0.00000000
369 1     19.98425185      9.23033055     13.86951231     -0.00000000     -0.00000000      0.00000000
374 1     17.98582666     12.69170450     13.86951231     -0.00000000     -0.00000000     -0.00000000
124 1     21.98267703     10.38412187      9.79024398     -0.00000000      0.00000000     -0.00000000
154 1     21.98267703      8.07653923     13.05365865     -0.00000000      0.00000000     -0.00000000
375 1     21.98267703     12.69170450     13.86951231     -0.00000000      0.00000000     -0.00000000
125 1     25.97952740     10.38412187      9.79024398      0.00000000      0.00000000     -0.00000000
155 1     25.97952740      8.07653923     13.05365865      0.00000000      0.00000000     -0.00000000
160 1     23.98110222     11.53791319     13.05365865      0.00000000      0.00000000      0.00000000
340 1     23.98110222     11.53791319     10.60609765      0.00000000     -0.00000000     -0.00000000
370 1     23.98110222      9.23033055     13.86951231      0.00000000     -0.00000000      0.00000000
376 1     25.97952740     12.69170450     13.86951231      0.00000000      0.00000000      0.00000000
126 1     29.97637777     10.38412187      9.79024398     -0.00000000      0.00000000     -0.00000000
156 1     29.97637777      8.07653923     13.05365865      0.00000025     -0.00000025      0.00000050
161 1     27.97795259     11.53791319     13.05365865     -0.00000000      0.00000000      0.00000000
341 1     27.97795259     11.53791319     10.60609765     -0.00000000     -0.00000000     -0.00000000
371 1     27.97795259      9.23033055     13.86951231     -0.00000000     -0.00000000      0.00000000
377 1     29.97637777     12.69170450     13.86951231      0.00000000     -0.00000000      0.00000000
162 1     31.97480296     11.53791319     13.05365865      0.00000023     -0.00000005      0.00000030
342 1     31.97480296     11.53791319     10.60609765      0.00000000     -0.00000000     -0.00000000
372 1     31.97480296      9.23033055     13.86951231      0.00000604      0.00001338     -0.00002601
378 1     33.97322814     12.69170450     13.86951231      0.00000490      0.00000037     -0.00001152
127 1     11.99055111     13.84549582      9.79024398      0.00000000     -0.00000000      0.00000000
128 1     15.98740148     13.84549582      9.79024398     -0.00000000      0.00000000      0.00000000
129 1     19.98425185     13.84549582      9.79024398     -0.00000000      0.00000000      0.00000000
130 1     23.98110222     13.84549582      9.79024398     -0.00000000      0.00000000      0.00000000
131 1     27.97795259     13.84549582      9.79024398     -0.00000000      0.00000000      0.00000000
132 1     31.97480296     13.84549582      9.79024398     -0.00000000      0.00000001      0.00000000
181 1      9.99212592      5.76895659     16.31707331     -0.00066251     -0.00095628      0.00343209
397 1     11.99055111      6.92274791     17.13292697      0.00678193      0.00003558      0.00014122
182 1     13.98897629      5.76895659     16.31707331     -0.00065331      0.00094483     -0.00343317
398 1     15.98740148      6.92274791     17.13292697     -0.00069605     -0.00033918     -0.00012725
183 1     17.98582666      5.76895659     16.31707331      0.00007496      0.00014934     -0.00006070
399 1     19.98425185      6.92274791     17.13292697     -0.00004661     -0.00000146      0.00001103
184 1     21.98267703      5.76895659     16.31707331      0.00000000     -0.00000000     -0.00000000
185 1     25.97952740      5.76895659     16.31707331      0.00000000     -0.00000000     -0.00000000
400 1     23.98110222      6.92274791     17.13292697      0.00000000     -0.00000000     -0.00000000
186 1     29.97637777      5.76895659     16.31707331      0.00007793     -0.00014140      0.00006038
401 1     27.97795259      6.92274791     17.13292697     -0.00004502      0.00000131     -0.00001087
402 1     31.97480296      6.92274791     17.13292697     -0.00069108      0.00032795      0.00012940
187 1     11.99055111      9.23033055     16.31707331      0.00098833      0.00000512     -0.00000521
188 1     15.98740148      9.23033055     16.31707331      0.00005764     -0.00000405      0.00000435
193 1     13.98897629     12.69170450     16.31707331      0.00010566      0.00002147     -0.00003473
403 1     13.98897629     10.38412187     17.13292697     -0.00034883     -0.00054451     -0.00027043
189 1     19.98425185      9.23033055     16.31707331      0.00000034      0.00000035     -0.00000010
194 1     17.98582666     12.69170450     16.31707331      0.00000026      0.00000002     -0.00000005
404 1     17.98582666     10.38412187     17.13292697     -0.00003397     -0.00003713      0.00000989
195 1     21.98267703     12.69170450     16.31707331      0.00000000     -0.00000000     -0.00000000
405 1     21.98267703     10.38412187     17.13292697      0.00000000      0.00000000      0.00000000
190 1     23.98110222      9.23033055     16.31707331     -0.00000000      0.00000000      0.00000000
196 1     25.97952740     12.69170450     16.31707331      0.00000000     -0.00000000     -0.00000000
406 1     25.97952740     10.38412187     17.13292697      0.00000000      0.00000000      0.00000000
191 1     27.97795259      9.23033055     16.31707331      0.00000034     -0.00000034      0.00000010
197 1     29.97637777     12.69170450     16.31707331      0.00000026     -0.00000003      0.00000004
407 1     29.97637777     10.38412187     17.13292697     -0.00003368      0.00003622     -0.00001011
192 1     31.97480296      9.23033055     16.31707331      0.00005762      0.00000038     -0.00000186
198 1     33.97322814     12.69170450     16.31707331      0.00010306     -0.00002378      0.00003367
408 1     33.97322814     10.38412187     17.13292697     -0.00033349      0.00052917      0.00027343
199 1     15.98740148     16.15307846     16.31707331      0.00000000     -0.00000000      0.00000000
409 1     15.98740148     13.84549582     17.13292697     -0.00001380     -0.00001997      0.00000715
200 1     19.98425185     16.15307846     16.31707331     -0.00000000     -0.00000000      0.00000000
410 1     19.98425185     13.84549582     17.13292697     -0.00000000     -0.00000000      0.00000000
201 1     23.98110222     16.15307846     16.31707331     -0.00000000     -0.00000000      0.00000000
411 1     23.98110222     13.84549582     17.13292697     -0.00000000     -0.00000000     -0.00000000
202 1     27.97795259     16.15307846     16.31707331     -0.00000000     -0.00000000      0.00000000
412 1     27.97795259     13.84549582     17.13292697     -0.00000000     -0.00000000      0.00000000
203 1     31.97480296     16.15307846     16.31707331     -0.00000000     -0.00000000     -0.00000000
413 1     31.97480296     13.84549582     17.13292697     -0.00001363      0.00001983     -0.00000712
204 1     35.97165333     16.15307846     16.31707331     -0.00000000     -0.00000000      0.00000000
414 1     35.97165333     13.84549582     17.13292697      0.00003415     -0.00000007     -0.00000005
19 1      5.99527555     10.38412187      0.00000000      0.00000000      0.00000000     -0.00000000
25 1      7.99370074     13.84549582      0.00000000     -0.00007058      0.00000489     -0.00000876
55 1      7.99370074     11.53791319      3.26341466     -0.00000000     -0.00000000      0.00000000
235 1      7.99370074     11.53791319      0.81585367      0.00000000      0.00000000      0.00000000
20 1      9.99212592     10.38412187      0.00000000     -0.00000000     -0.00000000      0.00000000
26 1     11.99055111     13.84549582      0.00000000      0.00006160     -0.00000013      0.00000001
56 1     11.99055111     11.53791319      3.26341466     -0.00000000     -0.00000000     -0.00000000
61 1      9.99212592     14.99928714      3.26341466      0.00010521      0.00013077     -0.00007358
236 1     11.99055111     11.53791319      0.81585367     -0.00000000      0.00000000     -0.00000000
241 1      9.99212592     14.99928714      0.81585367      0.00106536     -0.00005317      0.00079542
271 1      9.99212592     12.69170450      4.07926833     -0.00000000     -0.00000000     -0.00000000
21 1     13.98897629     10.38412187      0.00000000      0.00000000      0.00000000      0.00000000
27 1     15.98740148     13.84549582      0.00000000     -0.00007053     -0.00000723      0.00000922
57 1     15.98740148     11.53791319      3.26341466      0.00000000      0.00000000     -0.00000000
62 1     13.98897629     14.99928714      3.26341466      0.00010348     -0.00012771      0.00007017
237 1     15.98740148     11.53791319      0.81585367     -0.00000000     -0.00000000      0.00000000
242 1     13.98897629     14.99928714      0.81585367      0.00107189      0.00004883     -0.00079843
272 1     13.98897629     12.69170450      4.07926833      0.00000000      0.00000000     -0.00000000
22 1     17.98582666     10.38412187      0.00000000     -0.00000000      0.00000000     -0.00000000
28 1     19.98425185     13.84549582      0.00000000      0.00000000      0.00000000     -0.00000000
58 1     19.98425185     11.53791319      3.26341466     -0.00000000      0.00000000     -0.00000000
63 1     17.98582666     14.99928714      3.26341466      0.00000026     -0.00000040      0.00000042
238 1     19.98425185     11.53791319      0.81585367     -0.00000000     -0.00000000      0.00000000
243 1     17.98582666     14.99928714      0.81585367     -0.00001213      0.00003015     -0.00000043
273 1     17.98582666     12.69170450      4.07926833     -0.00000000     -0.00000000     -0.00000000
23 1     21.98267703     10.38412187      0.00000000     -0.00000000      0.00000000      0.00000000
64 1     21.98267703     14.99928714      3.26341466      0.00000000      0.00000000      0.00000000
239 1     23.98110222     11.53791319      0.81585367     -0.00000000     -0.00000000     -0.00000000
244 1     21.98267703     14.99928714      0.81585367      0.00000000     -0.00000000      0.00000000
274 1     21.98267703     12.69170450      4.07926833     -0.00000000     -0.00000000     -0.00000000
24 1     25.97952740     10.38412187      0.00000000     -0.00000000      0.00000001     -0.00000000
29 1     23.98110222     13.84549582      0.00000000      0.00000000      0.00000000      0.00000000
59 1     23.98110222     11.53791319      3.26341466      0.00000000     -0.00000000      0.00000000
65 1     25.97952740     14.99928714      3.26341466      0.00000000      0.00000000      0.00000000
245 1     25.97952740     14.99928714      0.81585367     -0.00000000     -0.00000000      0.00000000
275 1     25.97952740     12.69170450      4.07926833     -0.00000000      0.00000000     -0.00000000
30 1     27.97795259     13.84549582      0.00000000      0.00000000      0.00000000     -0.00000000
60 1     27.97795259     11.53791319      3.26341466      0.00000000     -0.00000000      0.00000000
66 1     29.97637777     14.99928714      3.26341466      0.00000025      0.00000039     -0.00000040
240 1     27.97795259     11.53791319      0.81585367     -0.00000000      0.00000000     -0.00000000
246 1     29.97637777     14.99928714      0.81585367     -0.00001180     -0.00002868      0.00000042
276 1     29.97637777     12.69170450      4.07926833     -0.00000000      0.00000000      0.00000000
31 1      9.99212592     17.30686978      0.00000000     -0.00066251      0.00291705     -0.00204562
67 1     11.99055111     18.46066110      3.26341466      0.00098834     -0.00000321      0.00000657
247 1     11.99055111     18.46066110      0.81585367      0.00678192      0.00014500     -0.00001353
277 1     11.99055111     16.15307846      4.07926833     -0.00020324     -0.00000390      0.00000439
32 1     13.98897629     17.30686978      0.00000000     -0.00065331     -0.00292187      0.00203519
68 1     15.98740148     18.46066110      3.26341466      0.00005764      0.00000275     -0.00000527
248 1     15.98740148     18.46066110      0.81585367     -0.00069606     -0.00023303     -0.00027737
278 1     15.98740148     16.15307846      4.07926833      0.00000643      0.00002060     -0.00002183
283 1     13.98897629     19.61445241      4.07926833     -0.00034883     -0.00043646     -0.00042322
33 1     17.98582666     17.30686978      0.00000000      0.00007495     -0.00000744      0.00016104
69 1     19.98425185     18.46066110      3.26341466      0.00000034      0.00000002      0.00000037
249 1     19.98425185     18.46066110      0.81585367     -0.00004661      0.00000991     -0.00000504
279 1     19.98425185     16.15307846      4.07926833     -0.00000000     -0.00000000     -0.00000000
284 1     17.98582666     19.61445241      4.07926833     -0.00003397     -0.00000305     -0.00003831
34 1     21.98267703     17.30686978      0.00000000      0.00000000      0.00000000      0.00000000