432  
1    

1    
  0.0100000000000000   0.0000000000000000   0.0000000000000000
  -0.1185503701   -0.0011845201   -0.0008375799
   0.0036599499    0.0004484399    0.0003170901
  -0.0000057901   -0.0000289201   -0.0000204499
  -0.0000000001   -0.0000000001    0.0000000001
  -0.0000141701    0.0000287699    0.0000203401
   0.0036055699   -0.0004328101   -0.0003060399
  -0.0006520301    0.0020420399   -0.0017363099
   0.0000764699    0.0000077099   -0.0000445499
  -0.0000000001   -0.0000000001    0.0000000001
  -0.0000000001   -0.0000000001    0.0000000001
   0.0000764899   -0.0000095601    0.0000437401
  -0.0006662901   -0.0020328601    0.0017224501
  -0.0000702801    0.0000653599   -0.0000296199
  -0.0000000001   -0.0000000001    0.0000000001
  -0.0000000001   -0.0000000001    0.0000000001
  -0.0000000001   -0.0000000001    0.0000000001
  -0.0000708201   -0.0000621401    0.0000291601
   0.0000615899    0.0000002199   -0.0000007699
  -0.0000000001   -0.0000000001    0.0000000001
  -0.0000000001   -0.0000000001    0.0000000001
  -0.0000000001   -0.0000000001    0.0000000001
  -0.0000000001   -0.0000000001    0.0000000001
  -0.0000000001   -0.0000000001    0.0000000001
  -0.0000000001    0.0000000099    0.0000000001
  -0.0000705801    0.0000048899   -0.0000087599
   0.0000615999   -0.0000001301    0.0000000101
  -0.0000705301   -0.0000072301    0.0000092201
  -0.0000000001   -0.0000000001    0.0000000001
  -0.0000000001   -0.0000000001    0.0000000001
  -0.0000000001   -0.0000000001    0.0000000001
  -0.0006625101    0.0029170499   -0.0020456199
  -0.0006533101   -0.0029218701    0.0020351901
   0.0000749499   -0.0000074401    0.0001610401
  -0.0000000001   -0.0000000001    0.0000000001
  -0.0000000001   -0.0000000001    0.0000000001
   0.0000779299    0.0000097999   -0.0001534399
  -0.0006520301   -0.0009563301    0.0025040301
   0.0000764599   -0.0000394301    0.0000221201
  -0.0000000001   -0.0000000001    0.0000000001
  -0.0000000001   -0.0000000001    0.0000000001
   0.0000764899    0.0000380499   -0.0000235899
  -0.0006662801    0.0009463199   -0.0024907499
  -0.0000566401   -0.0000711801   -0.0000503399
  -0.0000000001   -0.0000000001    0.0000000001
  -0.0000000001   -0.0000000001    0.0000000001
  -0.0000000001   -0.0000000001    0.0000000001
  -0.0000535701    0.0000676599    0.0000478401
   0.0000614899    0.0000003499    0.0000002401
  -0.0000000001   -0.0000000001    0.0000000001
  -0.0000000001   -0.0000000001    0.0000000001
  -0.0000000001   -0.0000000001    0.0000000001
  -0.0000000001   -0.0000000001    0.0000000001
  -0.0000000201    0.0000001399    0.0000000501
  -0.0000000201   -0.0000001401   -0.0000000499
  -0.0000000001   -0.0000000001    0.0000000001
  -0.0000000001   -0.0000000001    0.0000000001
  -0.0000000001   -0.0000000001    0.0000000001
  -0.0000000001   -0.0000000001    0.0000000001
  -0.0000000001   -0.0000000001    0.0000000001
  -0.0000000001   -0.0000000001    0.0000000001
   0.0001052099    0.0001307699   -0.0000735799
   0.0001034799   -0.0001277101    0.0000701701
   0.0000002599   -0.0000004001    0.0000004201
  -0.0000000001   -0.0000000001    0.0000000001
  -0.0000000001   -0.0000000001    0.0000000001
   0.0000002499    0.0000003899   -0.0000003999
   0.0009883399   -0.0000032101    0.0000065701
   0.0000576399    0.0000027499   -0.0000052699
   0.0000003399    0.0000000199    0.0000003701
  -0.0000000001   -0.0000000001    0.0000000001
   0.0000003399   -0.0000000201   -0.0000003499
   0.0000576199   -0.0000016301    0.0000009701
  -0.0000702801   -0.0000061301    0.0000715001
  -0.0000000001   -0.0000000001    0.0000000001
  -0.0000000001   -0.0000000001    0.0000000001
  -0.0000000001   -0.0000000001    0.0000000001
  -0.0000708201    0.0000067799   -0.0000683099
   0.0000615899   -0.0000006501    0.0000004701
  -0.0000000001   -0.0000000001    0.0000000001
  -0.0000000001   -0.0000000001    0.0000000001
  -0.0000000001   -0.0000000001    0.0000000001
  -0.0000000001   -0.0000000001    0.0000000001
  -0.0000000201    0.0000000899    0.0000001201
  -0.0000000201   -0.0000001001   -0.0000001099
  -0.0000000001   -0.0000000001    0.0000000001
  -0.0000000001   -0.0000000001    0.0000000001
  -0.0000000001   -0.0000000001    0.0000000001
  -0.0000000001   -0.0000000001    0.0000000001
  -0.0000000001   -0.0000000001    0.0000000001
  -0.0000000001   -0.0000000001    0.0000000001
  -0.0000000001   -0.0000000001    0.0000000001
  -0.0000000001   -0.0000000001    0.0000000001
  -0.0000000001   -0.0000000001    0.0000000001
  -0.0000000001   -0.0000000001    0.0000000001
  -0.0000000001   -0.0000000001    0.0000000001
  -0.0000000001   -0.0000000001    0.0000000001
  -0.0000593701   -0.0000000001   -0.0000000799
   0.0000002399   -0.0000002701    0.0000001501
  -0.0000000001   -0.0000000001    0.0000000001
  -0.0000000001   -0.0000000001    0.0000000001
  -0.0000000001   -0.0000000001    0.0000000001
   0.0000002299    0.0000002699   -0.0000001499
   0.0001056599   -0.0000255801    0.0000318201
   0.0000002599   -0.0000000301    0.0000000301
  -0.0000000001   -0.0000000001    0.0000000001
  -0.0000000001   -0.0000000001    0.0000000001
   0.0000002599    0.0000000399   -0.0000000399
   0.0001030599    0.0000238199   -0.0000336399
  -0.0000000001   -0.0000000001    0.0000000001
  -0.0000000001   -0.0000000001    0.0000000001
  -0.0000000001   -0.0000000001    0.0000000001
  -0.0000000001   -0.0000000001    0.0000000001
  -0.0000000001   -0.0000000001    0.0000000001
  -0.0000000001   -0.0000000001    0.0000000001
  -0.0000000001   -0.0000000001    0.0000000001
  -0.0000000001   -0.0000000001    0.0000000001
  -0.0000000001   -0.0000000001    0.0000000001
  -0.0000000001   -0.0000000001    0.0000000001
  -0.0000000001   -0.0000000001    0.0000000001
  -0.0000000001   -0.0000000001    0.0000000001
  -0.0000000001   -0.0000000001    0.0000000001
  -0.0000000001   -0.0000000001    0.0000000001
  -0.0000000001   -0.0000000001    0.0000000001
  -0.0000000001   -0.0000000001    0.0000000001
  -0.0000000001   -0.0000000001    0.0000000001
  -0.0000000001   -0.0000000001    0.0000000001
  -0.0000000001   -0.0000000001    0.0000000001
  -0.0000000001   -0.0000000001    0.0000000001
  -0.0000000001   -0.0000000001    0.0000000001
  -0.0000000001   -0.0000000001    0.0000000001
  -0.0000000001   -0.0000000001    0.0000000001
  -0.0000000001    0.0000000099    0.0000000001
  -0.0000000001   -0.0000000001    0.0000000001
  -0.0000000001   -0.0000000001    0.0000000001
  -0.0000000001   -0.0000000001    0.0000000001
  -0.0000000001   -0.0000000001    0.0000000001
  -0.0000000001   -0.0000000001    0.0000000001
  -0.0000000001   -0.0000000001    0.0000000001
  -0.0000000001   -0.0000000001    0.0000000001
  -0.0000000001   -0.0000000001    0.0000000001
  -0.0000000001   -0.0000000001    0.0000000001
  -0.0000000001   -0.0000000001    0.0000000001
  -0.0000000001   -0.0000000001    0.0000000001
  -0.0000000001   -0.0000000001    0.0000000001
  -0.0000705801   -0.0000066301    0.0000075401
   0.0000615999   -0.0000000301   -0.0000001199
  -0.0000705301    0.0000062899   -0.0000098799
  -0.0000000001   -0.0000000001    0.0000000001
  -0.0000000001   -0.0000000001    0.0000000001
  -0.0000000001   -0.0000000001    0.0000000001
   0.0001052099   -0.0000257801    0.0001478201
   0.0001034799    0.0000235799   -0.0001437899
   0.0000002699    0.0000002599   -0.0000005099
  -0.0000000001   -0.0000000001    0.0000000001
  -0.0000000001   -0.0000000001    0.0000000001
   0.0000002499   -0.0000002501    0.0000005001
  -0.0000593701   -0.0000000701    0.0000000201
   0.0000002399    0.0000000499   -0.0000003099
  -0.0000000001   -0.0000000001    0.0000000001
  -0.0000000001   -0.0000000001    0.0000000001
  -0.0000000001   -0.0000000001    0.0000000001
   0.0000002299   -0.0000000501    0.0000003001
  -0.0000000001   -0.0000000001    0.0000000001
  -0.0000000001   -0.0000000001    0.0000000001
  -0.0000000001   -0.0000000001    0.0000000001
  -0.0000000001   -0.0000000001    0.0000000001
  -0.0000000001   -0.0000000001    0.0000000001
  -0.0000000001   -0.0000000001    0.0000000001
  -0.0000000001   -0.0000000001    0.0000000001
  -0.0000000001   -0.0000000101    0.0000000001
  -0.0000000001   -0.0000000001    0.0000000001
  -0.0000000001   -0.0000000001    0.0000000001
  -0.0000000001   -0.0000000001    0.0000000001
  -0.0000000001   -0.0000000001    0.0000000001
  -0.0000000001   -0.0000000001    0.0000000001
  -0.0000000201    0.0000001199    0.0000002001
  -0.0000000201   -0.0000001301   -0.0000001999
  -0.0000000001   -0.0000000001    0.0000000001
  -0.0000000001   -0.0000000001    0.0000000001
  -0.0000000001   -0.0000000001    0.0000000001
  -0.0006625101   -0.0009562801    0.0034320901
  -0.0006533101    0.0009448299   -0.0034331699
   0.0000749599    0.0001493399   -0.0000606999
  -0.0000000001   -0.0000000001    0.0000000001
  -0.0000000001   -0.0000000001    0.0000000001
   0.0000779299   -0.0001414001    0.0000603801
   0.0009883299    0.0000051199   -0.0000052099
   0.0000576399   -0.0000040501    0.0000043501
   0.0000003399    0.0000003499   -0.0000000999
  -0.0000000001   -0.0000000001    0.0000000001
   0.0000003399   -0.0000003401    0.0000001001
   0.0000576199    0.0000003799   -0.0000018599
   0.0001056599    0.0000214699   -0.0000347299
   0.0000002599    0.0000000199   -0.0000000499
  -0.0000000001   -0.0000000001    0.0000000001
  -0.0000000001   -0.0000000001    0.0000000001
   0.0000002599   -0.0000000301    0.0000000401
   0.0001030599   -0.0000237801    0.0000336701
  -0.0000000001   -0.0000000001    0.0000000001
  -0.0000000001   -0.0000000001    0.0000000001
  -0.0000000001   -0.0000000001    0.0000000001
  -0.0000000001   -0.0000000001    0.0000000001
  -0.0000000001   -0.0000000001    0.0000000001
  -0.0000000001   -0.0000000001    0.0000000001
  -0.0000000001   -0.0000000101    0.0000000001
  -0.0000000201    0.0000002299    0.0000000501
  -0.0000000201   -0.0000002401   -0.0000000499
  -0.0000000001   -0.0000000001    0.0000000001
  -0.0000000001   -0.0000000001    0.0000000001
  -0.0000000001   -0.0000000001    0.0000000001
  -0.0000543801    0.0000379099    0.0000268001
   0.0000615099    0.0000002099    0.0000001501
  -0.0000558401   -0.0000364301   -0.0000257599
  -0.0000000001   -0.0000000001    0.0000000001
  -0.0000000001   -0.0000000001    0.0000000001
  -0.0000000001   -0.0000000001    0.0000000001
   0.0509731299    0.0256408899    0.0181308501
   0.0002209199   -0.0004474901   -0.0003164199
  -0.0000000001   -0.0000000001    0.0000000001
  -0.0000000001   -0.0000000001    0.0000000001
   0.0001978999    0.0004415399    0.0003122101
   0.0496319099   -0.0246207001   -0.0174094599
   0.0003038399   -0.0004925701    0.0004864301
  -0.0000000001   -0.0000000001    0.0000000001
  -0.0000000001   -0.0000000001    0.0000000001
  -0.0000000001   -0.0000000001    0.0000000001
   0.0002935499    0.0005010599   -0.0004796499
  -0.0010952501    0.0000068399    0.0000069501
  -0.0000000001   -0.0000000001    0.0000000001
  -0.0000000001   -0.0000000001    0.0000000001
  -0.0000000001   -0.0000000001    0.0000000001
  -0.0000000001   -0.0000000001    0.0000000001
   0.0000050699    0.0000193799    0.0000044901
   0.0000051699   -0.0000196801   -0.0000045599
  -0.0000000001   -0.0000000001    0.0000000001
  -0.0000000001   -0.0000000001    0.0000000001
  -0.0000000001   -0.0000000001    0.0000000001
  -0.0000000001   -0.0000000001    0.0000000001
  -0.0000000001   -0.0000000001    0.0000000001
  -0.0000000001   -0.0000000001    0.0000000001
   0.0010653599   -0.0000531701    0.0007954201
   0.0010718899    0.0000488299   -0.0007984299
  -0.0000121301    0.0000301499   -0.0000004299
  -0.0000000001   -0.0000000001    0.0000000001
  -0.0000000001   -0.0000000001    0.0000000001
  -0.0000118001   -0.0000286801    0.0000004201
   0.0067819199    0.0001449999   -0.0000135299
  -0.0006960601   -0.0002330301   -0.0002773699
  -0.0000466101    0.0000099099   -0.0000050399
  -0.0000000001   -0.0000000001    0.0000000001
  -0.0000450201   -0.0000098101    0.0000048601
  -0.0006910801    0.0002313199    0.0002660601
   0.0003038399    0.0002944299   -0.0006265399
  -0.0000000001   -0.0000000001    0.0000000001
  -0.0000000001   -0.0000000001    0.0000000001
  -0.0000000001   -0.0000000001    0.0000000001
   0.0002935499   -0.0002852001    0.0006322901
  -0.0010952501    0.0000088399    0.0000041301
  -0.0000000001   -0.0000000001    0.0000000001
  -0.0000000001   -0.0000000001    0.0000000001
  -0.0000000001   -0.0000000001    0.0000000001
  -0.0000000001   -0.0000000001    0.0000000001
   0.0000013299    0.0000231299    0.0000163501
   0.0000014499   -0.0000231401   -0.0000163599
  -0.0000000001   -0.0000000001    0.0000000001
  -0.0000000001   -0.0000000001    0.0000000001
  -0.0000000001   -0.0000000001    0.0000000001
  -0.0000000001   -0.0000000001    0.0000000001
  -0.0000000001   -0.0000000001    0.0000000001
  -0.0000000001   -0.0000000001    0.0000000001
  -0.0000000001   -0.0000000001    0.0000000001
  -0.0000000001   -0.0000000001    0.0000000001
  -0.0000000001   -0.0000000001    0.0000000001
  -0.0000000001   -0.0000000001    0.0000000001
  -0.0000000001   -0.0000000001    0.0000000001
  -0.0000000001   -0.0000000001    0.0000000001
  -0.0002032401   -0.0000039001    0.0000043901
   0.0000064299    0.0000205999   -0.0000218299
  -0.0000000001   -0.0000000001    0.0000000001
  -0.0000000001   -0.0000000001    0.0000000001
  -0.0000000001   -0.0000000001    0.0000000001
   0.0000060299   -0.0000200601    0.0000212801
  -0.0003488301   -0.0004364601   -0.0004232199
  -0.0000339701   -0.0000030501   -0.0000383099
  -0.0000000001   -0.0000000001    0.0000000001
  -0.0000000001   -0.0000000001    0.0000000001
  -0.0000336701    0.0000025399    0.0000375101
  -0.0003334901    0.0004341899    0.0004077601
  -0.0000000001   -0.0000000001    0.0000000001
  -0.0000000001   -0.0000000001    0.0000000001
  -0.0000000001   -0.0000000001    0.0000000001
  -0.0000000001   -0.0000000001    0.0000000001
   0.0000050699    0.0000106899    0.0000167701
   0.0000051699   -0.0000108601   -0.0000170299
  -0.0000000001   -0.0000000001    0.0000000001
  -0.0000000001   -0.0000000001    0.0000000001
  -0.0000000001   -0.0000000001    0.0000000001
  -0.0000000001   -0.0000000001    0.0000000001
  -0.0000000001   -0.0000000001   -0.0000000099
  -0.0000000001   -0.0000000001    0.0000000001
  -0.0000000001   -0.0000000001    0.0000000001
  -0.0000000001   -0.0000000001    0.0000000001
  -0.0000000001   -0.0000000001    0.0000000001
  -0.0000000001   -0.0000000001    0.0000000001
  -0.0000000001   -0.0000000001    0.0000000001
  -0.0000000001   -0.0000000001    0.0000000001
  -0.0000000001   -0.0000000001    0.0000000001
  -0.0000000001   -0.0000000001    0.0000000001
  -0.0000000001   -0.0000000001    0.0000000001
  -0.0000000001   -0.0000000001    0.0000000001
  -0.0000000001   -0.0000000001    0.0000000001
  -0.0000000001   -0.0000000001    0.0000000001
   0.0000049899    0.0000110199   -0.0000042999
  -0.0000000001   -0.0000000001    0.0000000001
  -0.0000000001   -0.0000000001    0.0000000001
  -0.0000000001   -0.0000000001    0.0000000001
  -0.0000000001   -0.0000000101    0.0000000001
   0.0000049099   -0.0000107301    0.0000041801
  -0.0000138101    0.0000000799   -0.0000212099
  -0.0000000001   -0.0000000001    0.0000000001
  -0.0000000001   -0.0000000001    0.0000000001
  -0.0000000001   -0.0000000001    0.0000000001
  -0.0000136301   -0.0000001101    0.0000210701
   0.0000341399   -0.0000000701   -0.0000000499
  -0.0000000001   -0.0000000001    0.0000000001
  -0.0000000001   -0.0000000001    0.0000000001
  -0.0000000001   -0.0000000001    0.0000000001
  -0.0000000001   -0.0000000001    0.0000000001
  -0.0000000001   -0.0000000001    0.0000000001
  -0.0000000001   -0.0000000001    0.0000000001
  -0.0000000001   -0.0000000001   -0.0000000099
  -0.0000000001   -0.0000000001    0.0000000001
  -0.0000000001   -0.0000000001   -0.0000000099
  -0.0000000001   -0.0000000001    0.0000000001
  -0.0000000001   -0.0000000001    0.0000000001
  -0.0000000001   -0.0000000001    0.0000000001
  -0.0000000001   -0.0000000001    0.0000000001
  -0.0000000001   -0.0000000001    0.0000000001
  -0.0000000001   -0.0000000001    0.0000000001
  -0.0000000001   -0.0000000001    0.0000000001
  -0.0000000001   -0.0000000001    0.0000000001
  -0.0000000001   -0.0000000001    0.0000000001
  -0.0000000001   -0.0000000001    0.0000000001
  -0.0000000001   -0.0000000001    0.0000000001
  -0.0000000001   -0.0000000001    0.0000000001
  -0.0000000001   -0.0000000001    0.0000000001
  -0.0000000001   -0.0000000001    0.0000000001
  -0.0000000001   -0.0000000001    0.0000000001
  -0.0000000001   -0.0000000001    0.0000000001
  -0.0000000001   -0.0000000001    0.0000000001
  -0.0000000001   -0.0000000001    0.0000000001
  -0.0000000001   -0.0000000001    0.0000000001
  -0.0000000001   -0.0000000001    0.0000000001
  -0.0000000001   -0.0000000001    0.0000000001
  -0.0000000001   -0.0000000001    0.0000000001
  -0.0000000001   -0.0000000001    0.0000000001
  -0.0000000001   -0.0000000001    0.0000000001
  -0.0000000001   -0.0000000001    0.0000000001
  -0.0000000001   -0.0000000001    0.0000000001
  -0.0000000001   -0.0000000001    0.0000000001
   0.0010653599    0.0007321999   -0.0003152699
   0.0010718899   -0.0007364901    0.0003121801
  -0.0000121301    0.0000096499    0.0000285701
  -0.0000000001   -0.0000000001    0.0000000001
  -0.0000000001   -0.0000000001    0.0000000001
  -0.0000118001   -0.0000091601   -0.0000271799
  -0.0002032401    0.0000028399   -0.0000051399
   0.0000064399   -0.0000137101    0.0000267001
  -0.0000000001   -0.0000000001    0.0000000001
  -0.0000000001   -0.0000000001    0.0000000001
  -0.0000000001   -0.0000000001    0.0000000001
   0.0000060399    0.0000133799   -0.0000260099
   0.0000049899   -0.0000003801    0.0000118201
  -0.0000000001   -0.0000000001    0.0000000001
  -0.0000000001   -0.0000000001    0.0000000001
  -0.0000000001   -0.0000000001    0.0000000001
  -0.0000000001   -0.0000000001    0.0000000001
   0.0000048999    0.0000003699   -0.0000115199
  -0.0000000001   -0.0000000001    0.0000000001
  -0.0000000001   -0.0000000001    0.0000000001
  -0.0000000001   -0.0000000001    0.0000000001
  -0.0000000001   -0.0000000001    0.0000000001
  -0.0000000001   -0.0000000001    0.0000000001
  -0.0000000001   -0.0000000001    0.0000000001
  -0.0000000001   -0.0000000001    0.0000000001
  -0.0000000001   -0.0000000001    0.0000000001
  -0.0000000001   -0.0000000001    0.0000000001
  -0.0000000001   -0.0000000001    0.0000000001
  -0.0000000001   -0.0000000001    0.0000000001
  -0.0000000001   -0.0000000001    0.0000000001
  -0.0000112201   -0.0000097101   -0.0000160499
   0.0000296999    0.0000000999    0.0000003001
  -0.0000114201    0.0000098099    0.0000163301
  -0.0000000001   -0.0000000001    0.0000000001
  -0.0000000001   -0.0000000001    0.0000000001
  -0.0000000001   -0.0000000001    0.0000000001
   0.0067819299    0.0000355799    0.0001412201
  -0.0006960501   -0.0003391801   -0.0001272499
  -0.0000466101   -0.0000014601    0.0000110301
  -0.0000000001   -0.0000000001    0.0000000001
  -0.0000450201    0.0000013099   -0.0000108699
  -0.0006910801    0.0003279499    0.0001294001
  -0.0003488301   -0.0005445101   -0.0002704299
  -0.0000339701   -0.0000371301    0.0000098901
  -0.0000000001   -0.0000000001    0.0000000001
  -0.0000000001   -0.0000000001    0.0000000001
  -0.0000336801    0.0000362199   -0.0000101099
  -0.0003334901    0.0005291699    0.0002734301
  -0.0000138001   -0.0000199701    0.0000071501
  -0.0000000001   -0.0000000001    0.0000000001
  -0.0000000001   -0.0000000001    0.0000000001
  -0.0000000001   -0.0000000001    0.0000000001
  -0.0000136301    0.0000198299   -0.0000071199
   0.0000341499   -0.0000000701   -0.0000000499
  -0.0000000001   -0.0000000001    0.0000000001
  -0.0000000001   -0.0000000001    0.0000000001
  -0.0000000001   -0.0000000001    0.0000000001
  -0.0000000001   -0.0000000001    0.0000000001
  -0.0000000001   -0.0000000001    0.0000000001
  -0.0000000001   -0.0000000001    0.0000000001
  -0.0000112201   -0.0000183701   -0.0000038099
   0.0000296999    0.0000003199   -0.0000000099
  -0.0000114201    0.0000186699    0.0000038001
  -0.0000000001   -0.0000000001    0.0000000001
  -0.0000000001   -0.0000000001    0.0000000001
  -0.0000000001   -0.0000000001    0.0000000001
   0.0002367899   -0.0002068101   -0.0001462399
   0.0002356599    0.0002008399    0.0001420101
  -0.0000367001    0.0000413199    0.0000292201
  -0.0000000001   -0.0000000001    0.0000000001
  -0.0000000001   -0.0000000001    0.0000000001
  -0.0000365301   -0.0000403901   -0.0000285599
