(written by ASE)

2 atoms
1 atom types

0.0      3.9968503699788411  xlo xhi
0.0      3.4613739555269087  ylo yhi
0.0      3.2634146615674404  zlo zhi
     1.9984251849894206      1.9984251849894206      1.1537913185089697  xy xz yz

Atom Type Labels

1 Ge

Atoms # atomic

     1   1                       0                       0                       0
     2   1      1.9984251849894208      1.1537913185089697     0.81585366539186011
