mesh: [    45,    45,    45 ]
nqpoint: 2300   
reciprocal_lattice:
- [   0.25019701,  -0.14445131,  -0.10214250 ] # a*
- [   0.00000000,   0.28890262,  -0.10214250 ] # b*
- [   0.00000000,   0.00000000,   0.30642750 ] # c*
natom:   2      
lattice:
- [     3.996850369978841,     0.000000000000000,     0.000000000000000 ] # a
- [     1.998425184989421,     3.461373955526909,     0.000000000000000 ] # b
- [     1.998425184989421,     1.153791318508970,     3.263414661567440 ] # c
points:
- symbol: Ge # 1
  coordinates: [  0.000000000000000,  0.000000000000000,  0.000000000000000 ]
  mass: 72.640000
- symbol: Ge # 2
  coordinates: [  0.250000000000000,  0.250000000000000,  0.250000000000000 ]
  mass: 72.640000

phonon:
- q-position: [    0.0000000,    0.0000000,    0.0000000 ]
  distance_from_gamma:  0.000000000
  weight: 1    
  band:
  - # 1
    frequency:    -0.0015125761
  - # 2
    frequency:    -0.0015125760
  - # 3
    frequency:    -0.0015125760
  - # 4
    frequency:     8.7373339731
  - # 5
    frequency:     8.7373339731
  - # 6
    frequency:     8.7373339731

- q-position: [    0.0222222,    0.0000000,    0.0000000 ]
  distance_from_gamma:  0.006809500
  weight: 8    
  band:
  - # 1
    frequency:     0.1915743347
  - # 2
    frequency:     0.1915743347
  - # 3
    frequency:     0.3578660767
  - # 4
    frequency:     8.7329760688
  - # 5
    frequency:     8.7355197775
  - # 6
    frequency:     8.7355197775

- q-position: [    0.0444444,    0.0000000,    0.0000000 ]
  distance_from_gamma:  0.013619000
  weight: 8    
  band:
  - # 1
    frequency:     0.3806527243
  - # 2
    frequency:     0.3806527243
  - # 3
    frequency:     0.7150433606
  - # 4
    frequency:     8.7199079311
  - # 5
    frequency:     8.7301666692
  - # 6
    frequency:     8.7301666692

- q-position: [    0.0666667,    0.0000000,    0.0000000 ]
  distance_from_gamma:  0.020428500
  weight: 8    
  band:
  - # 1
    frequency:     0.5647466139
  - # 2
    frequency:     0.5647466139
  - # 3
    frequency:     1.0708014096
  - # 4
    frequency:     8.6981491254
  - # 5
    frequency:     8.7215395659
  - # 6
    frequency:     8.7215395659

- q-position: [    0.0888889,    0.0000000,    0.0000000 ]
  distance_from_gamma:  0.027238000
  weight: 8    
  band:
  - # 1
    frequency:     0.7414371543
  - # 2
    frequency:     0.7414371543
  - # 3
    frequency:     1.4243574038
  - # 4
    frequency:     8.6677413792
  - # 5
    frequency:     8.7100680470
  - # 6
    frequency:     8.7100680470

- q-position: [    0.1111111,    0.0000000,    0.0000000 ]
  distance_from_gamma:  0.034047500
  weight: 8    
  band:
  - # 1
    frequency:     0.9083970932
  - # 2
    frequency:     0.9083970932
  - # 3
    frequency:     1.7748464058
  - # 4
    frequency:     8.6287611057
  - # 5
    frequency:     8.6963277354
  - # 6
    frequency:     8.6963277354

- q-position: [    0.1333333,    0.0000000,    0.0000000 ]
  distance_from_gamma:  0.040857000
  weight: 8    
  band:
  - # 1
    frequency:     1.0634350526
  - # 2
    frequency:     1.0634350526
  - # 3
    frequency:     2.1213070661
  - # 4
    frequency:     8.5813347887
  - # 5
    frequency:     8.6810131109
  - # 6
    frequency:     8.6810131109

- q-position: [    0.1555556,    0.0000000,    0.0000000 ]
  distance_from_gamma:  0.047666500
  weight: 8    
  band:
  - # 1
    frequency:     1.2045484503
  - # 2
    frequency:     1.2045484503
  - # 3
    frequency:     2.4626757003
  - # 4
    frequency:     8.5256554405
  - # 5
    frequency:     8.6649012658
  - # 6
    frequency:     8.6649012658

- q-position: [    0.1777778,    0.0000000,    0.0000000 ]
  distance_from_gamma:  0.054476000
  weight: 8    
  band:
  - # 1
    frequency:     1.3299864573
  - # 2
    frequency:     1.3299864573
  - # 3
    frequency:     2.7977894240
  - # 4
    frequency:     8.4619982915
  - # 5
    frequency:     8.6488068391
  - # 6
    frequency:     8.6488068391

- q-position: [    0.2000000,    0.0000000,    0.0000000 ]
  distance_from_gamma:  0.061285500
  weight: 8    
  band:
  - # 1
    frequency:     1.4383221775
  - # 2
    frequency:     1.4383221775
  - # 3
    frequency:     3.1253976976
  - # 4
    frequency:     8.3907340991
  - # 5
    frequency:     8.6335296300
  - # 6
    frequency:     8.6335296300

- q-position: [    0.2222222,    0.0000000,    0.0000000 ]
  distance_from_gamma:  0.068095000
  weight: 8    
  band:
  - # 1
    frequency:     1.5285312128
  - # 2
    frequency:     1.5285312128
  - # 3
    frequency:     3.4441805898
  - # 4
    frequency:     8.3123390102
  - # 5
    frequency:     8.6197980710
  - # 6
    frequency:     8.6197980710

- q-position: [    0.2444444,    0.0000000,    0.0000000 ]
  distance_from_gamma:  0.074904500
  weight: 8    
  band:
  - # 1
    frequency:     1.6000716478
  - # 2
    frequency:     1.6000716478
  - # 3
    frequency:     3.7527709616
  - # 4
    frequency:     8.2274008266
  - # 5
    frequency:     8.6082135159
  - # 6
    frequency:     8.6082135159

- q-position: [    0.2666667,    0.0000000,    0.0000000 ]
  distance_from_gamma:  0.081714000
  weight: 8    
  band:
  - # 1
    frequency:     1.6529586292
  - # 2
    frequency:     1.6529586292
  - # 3
    frequency:     4.0497764282
  - # 4
    frequency:     8.1366229550
  - # 5
    frequency:     8.5992016424
  - # 6
    frequency:     8.5992016424

- q-position: [    0.2888889,    0.0000000,    0.0000000 ]
  distance_from_gamma:  0.088523500
  weight: 8    
  band:
  - # 1
    frequency:     1.6878255392
  - # 2
    frequency:     1.6878255392
  - # 3
    frequency:     4.3337950700
  - # 4
    frequency:     8.0408295127
  - # 5
    frequency:     8.5929776010
  - # 6
    frequency:     8.5929776010

- q-position: [    0.3111111,    0.0000000,    0.0000000 ]
  distance_from_gamma:  0.095333000
  weight: 8    
  band:
  - # 1
    frequency:     1.7059634366
  - # 2
    frequency:     1.7059634366
  - # 3
    frequency:     4.6034159308
  - # 4
    frequency:     7.9409784937
  - # 5
    frequency:     8.5895304619
  - # 6
    frequency:     8.5895304619

- q-position: [    0.3333333,    0.0000000,    0.0000000 ]
  distance_from_gamma:  0.102142500
  weight: 8    
  band:
  - # 1
    frequency:     1.7093306542
  - # 2
    frequency:     1.7093306542
  - # 3
    frequency:     4.8571905040
  - # 4
    frequency:     7.8381953793
  - # 5
    frequency:     8.5886300332
  - # 6
    frequency:     8.5886300332

- q-position: [    0.3555556,    0.0000000,    0.0000000 ]
  distance_from_gamma:  0.108952000
  weight: 8    
  band:
  - # 1
    frequency:     1.7005243786
  - # 2
    frequency:     1.7005243786
  - # 3
    frequency:     5.0935533378
  - # 4
    frequency:     7.7338484215
  - # 5
    frequency:     8.5898557808
  - # 6
    frequency:     8.5898557808

- q-position: [    0.3777778,    0.0000000,    0.0000000 ]
  distance_from_gamma:  0.115761500
  weight: 8    
  band:
  - # 1
    frequency:     1.6827048609
  - # 2
    frequency:     1.6827048609
  - # 3
    frequency:     5.3106569468
  - # 4
    frequency:     7.6297006298
  - # 5
    frequency:     8.5926442459
  - # 6
    frequency:     8.5926442459

- q-position: [    0.4000000,    0.0000000,    0.0000000 ]
  distance_from_gamma:  0.122571000
  weight: 8    
  band:
  - # 1
    frequency:     1.6594606021
  - # 2
    frequency:     1.6594606021
  - # 3
    frequency:     5.5060686440
  - # 4
    frequency:     7.5281919728
  - # 5
    frequency:     8.5963488875
  - # 6
    frequency:     8.5963488875

- q-position: [    0.4222222,    0.0000000,    0.0000000 ]
  distance_from_gamma:  0.129380500
  weight: 8    
  band:
  - # 1
    frequency:     1.6346015916
  - # 2
    frequency:     1.6346015916
  - # 3
    frequency:     5.6762678470
  - # 4
    frequency:     7.4329152430
  - # 5
    frequency:     8.6003051882
  - # 6
    frequency:     8.6003051882

- q-position: [    0.4444444,    0.0000000,    0.0000000 ]
  distance_from_gamma:  0.136190001
  weight: 8    
  band:
  - # 1
    frequency:     1.6118724297
  - # 2
    frequency:     1.6118724297
  - # 3
    frequency:     5.8159480070
  - # 4
    frequency:     7.3492841911
  - # 5
    frequency:     8.6038941318
  - # 6
    frequency:     8.6038941318

- q-position: [    0.4666667,    0.0000000,    0.0000000 ]
  distance_from_gamma:  0.142999501
  weight: 8    
  band:
  - # 1
    frequency:     1.5945943724
  - # 2
    frequency:     1.5945943724
  - # 3
    frequency:     5.9174731287
  - # 4
    frequency:     7.2850472263
  - # 5
    frequency:     8.6065983882
  - # 6
    frequency:     8.6065983882

- q-position: [    0.4888889,    0.0000000,    0.0000000 ]
  distance_from_gamma:  0.149809001
  weight: 8    
  band:
  - # 1
    frequency:     1.5852771267
  - # 2
    frequency:     1.5852771267
  - # 3
    frequency:     5.9717005442
  - # 4
    frequency:     7.2494384335
  - # 5
    frequency:     8.6080471587
  - # 6
    frequency:     8.6080471587

- q-position: [    0.0222222,    0.0222222,    0.0000000 ]
  distance_from_gamma:  0.007862933
  weight: 6    
  band:
  - # 1
    frequency:     0.2477796315
  - # 2
    frequency:     0.2477796315
  - # 3
    frequency:     0.3818501486
  - # 4
    frequency:     8.7317663432
  - # 5
    frequency:     8.7317663432
  - # 6
    frequency:     8.7378182093

- q-position: [    0.0444444,    0.0222222,    0.0000000 ]
  distance_from_gamma:  0.013039200
  weight: 24   
  band:
  - # 1
    frequency:     0.3778164935
  - # 2
    frequency:     0.3973315094
  - # 3
    frequency:     0.6593865690
  - # 4
    frequency:     8.7218240624
  - # 5
    frequency:     8.7244946878
  - # 6
    frequency:     8.7365127063

- q-position: [    0.0666667,    0.0222222,    0.0000000 ]
  distance_from_gamma:  0.019260175
  weight: 24   
  band:
  - # 1
    frequency:     0.5345542054
  - # 2
    frequency:     0.5664317489
  - # 3
    frequency:     0.9920370424
  - # 4
    frequency:     8.7031869717
  - # 5
    frequency:     8.7140121379
  - # 6
    frequency:     8.7316859178

- q-position: [    0.0888889,    0.0222222,    0.0000000 ]
  distance_from_gamma:  0.025780351
  weight: 24   
  band:
  - # 1
    frequency:     0.7007702761
  - # 2
    frequency:     0.7358925497
  - # 3
    frequency:     1.3347365782
  - # 4
    frequency:     8.6759338174
  - # 5
    frequency:     8.7007888430
  - # 6
    frequency:     8.7235724116

- q-position: [    0.1111111,    0.0222222,    0.0000000 ]
  distance_from_gamma:  0.032419705
  weight: 24   
  band:
  - # 1
    frequency:     0.8653246490
  - # 2
    frequency:     0.8989683588
  - # 3
    frequency:     1.6791634287
  - # 4
    frequency:     8.6401249288
  - # 5
    frequency:     8.6854381031
  - # 6
    frequency:     8.7126170396

- q-position: [    0.1333333,    0.0222222,    0.0000000 ]
  distance_from_gamma:  0.039117599
  weight: 24   
  band:
  - # 1
    frequency:     1.0225749226
  - # 2
    frequency:     1.0518865903
  - # 3
    frequency:     2.0220895998
  - # 4
    frequency:     8.5958494613
  - # 5
    frequency:     8.6686882321
  - # 6
    frequency:     8.6994218582

- q-position: [    0.1555556,    0.0222222,    0.0000000 ]
  distance_from_gamma:  0.045848386
  weight: 24   
  band:
  - # 1
    frequency:     1.1689382891
  - # 2
    frequency:     1.1919436793
  - # 3
    frequency:     2.3615414881
  - # 4
    frequency:     8.5432527235
  - # 5
    frequency:     8.6513454890
  - # 6
    frequency:     8.6847057429

- q-position: [    0.1777778,    0.0222222,    0.0000000 ]
  distance_from_gamma:  0.052599439
  weight: 24   
  band:
  - # 1
    frequency:     1.3017857600
  - # 2
    frequency:     1.3170275139
  - # 3
    frequency:     2.6959302767
  - # 4
    frequency:     8.4825573876
  - # 5
    frequency:     8.6342483289
  - # 6
    frequency:     8.6692607158

- q-position: [    0.2000000,    0.0222222,    0.0000000 ]
  distance_from_gamma:  0.059363845
  weight: 24   
  band:
  - # 1
    frequency:     1.4190937556
  - # 2
    frequency:     1.4255029232
  - # 3
    frequency:     3.0237849898
  - # 4
    frequency:     8.4140805433
  - # 5
    frequency:     8.6182144899
  - # 6
    frequency:     8.6539018848

- q-position: [    0.2222222,    0.0222222,    0.0000000 ]
  distance_from_gamma:  0.066137506
  weight: 24   
  band:
  - # 1
    frequency:     1.5162148409
  - # 2
    frequency:     1.5193506668
  - # 3
    frequency:     3.3436617982
  - # 4
    frequency:     8.3382461990
  - # 5
    frequency:     8.6039841156
  - # 6
    frequency:     8.6394121133

- q-position: [    0.2444444,    0.0222222,    0.0000000 ]
  distance_from_gamma:  0.072917844
  weight: 24   
  band:
  - # 1
    frequency:     1.5885342574
  - # 2
    frequency:     1.6015600599
  - # 3
    frequency:     3.6541177016
  - # 4
    frequency:     8.2555931260
  - # 5
    frequency:     8.5921638938
  - # 6
    frequency:     8.6264847973

- q-position: [    0.2666667,    0.0222222,    0.0000000 ]
  distance_from_gamma:  0.079703154
  weight: 24   
  band:
  - # 1
    frequency:     1.6424161439
  - # 2
    frequency:     1.6652812712
  - # 3
    frequency:     3.9537097001
  - # 4
    frequency:     8.1667791089
  - # 5
    frequency:     8.5831785415
  - # 6
    frequency:     8.6156698990

- q-position: [    0.2888889,    0.0222222,    0.0000000 ]
  distance_from_gamma:  0.086492267
  weight: 24   
  band:
  - # 1
    frequency:     1.6784519187
  - # 2
    frequency:     1.7106792847
  - # 3
    frequency:     4.2410008955
  - # 4
    frequency:     8.0725845366
  - # 5
    frequency:     8.5772362922
  - # 6
    frequency:     8.6073295049

- q-position: [    0.3111111,    0.0222222,    0.0000000 ]
  distance_from_gamma:  0.093284351
  weight: 24   
  band:
  - # 1
    frequency:     1.6979039840
  - # 2
    frequency:     1.7385667907
  - # 3
    frequency:     4.5145600999
  - # 4
    frequency:     7.9739211707
  - # 5
    frequency:     8.5743139398
  - # 6
    frequency:     8.6016091338

- q-position: [    0.3333333,    0.0222222,    0.0000000 ]
  distance_from_gamma:  0.100078803
  weight: 24   
  band:
  - # 1
    frequency:     1.7027121890
  - # 2
    frequency:     1.7504260144
  - # 3
    frequency:     4.7729404521
  - # 4
    frequency:     7.8718565413
  - # 5
    frequency:     8.5741644781
  - # 6
    frequency:     8.5984295511

- q-position: [    0.3555556,    0.0222222,    0.0000000 ]
  distance_from_gamma:  0.106875170
  weight: 24   
  band:
  - # 1
    frequency:     1.6954629381
  - # 2
    frequency:     1.7484002753
  - # 3
    frequency:     5.0146170262
  - # 4
    frequency:     7.7676719007
  - # 5
    frequency:     8.5763469918
  - # 6
    frequency:     8.5975010918

- q-position: [    0.3777778,    0.0222222,    0.0000000 ]
  distance_from_gamma:  0.113673109
  weight: 24   
  band:
  - # 1
    frequency:     1.6793108994
  - # 2
    frequency:     1.7352460463
  - # 3
    frequency:     5.2378528393
  - # 4
    frequency:     7.6629836214
  - # 5
    frequency:     8.5802750893
  - # 6
    frequency:     8.5983591312

- q-position: [    0.4000000,    0.0222222,    0.0000000 ]
  distance_from_gamma:  0.120472354
  weight: 24   
  band:
  - # 1
    frequency:     1.6578412418
  - # 2
    frequency:     1.7142354881
  - # 3
    frequency:     5.4404464713
  - # 4
    frequency:     7.5599752840
  - # 5
    frequency:     8.5852776921
  - # 6
    frequency:     8.6004162520

- q-position: [    0.4222222,    0.0222222,    0.0000000 ]
  distance_from_gamma:  0.127272695
  weight: 24   
  band:
  - # 1
    frequency:     1.6348593762
  - # 2
    frequency:     1.6889978705
  - # 3
    frequency:     5.6192992301
  - # 4
    frequency:     7.4618040113
  - # 5
    frequency:     8.5906649226
  - # 6
    frequency:     8.6030246155

- q-position: [    0.4444444,    0.0222222,    0.0000000 ]
  distance_from_gamma:  0.134073966
  weight: 24   
  band:
  - # 1
    frequency:     1.6141004565
  - # 2
    frequency:     1.6632889060
  - # 3
    frequency:     5.7697663176
  - # 4
    frequency:     7.3732189779
  - # 5
    frequency:     8.5957921396
  - # 6
    frequency:     8.6055413971

- q-position: [    0.4666667,    0.0222222,    0.0000000 ]
  distance_from_gamma:  0.140876032
  weight: 24   
  band:
  - # 1
    frequency:     1.5988687627
  - # 2
    frequency:     1.6406851642
  - # 3
    frequency:     5.8849747093
  - # 4
    frequency:     7.3012124369
  - # 5
    frequency:     8.6001164422
  - # 6
    frequency:     8.6073907373

- q-position: [    0.4888889,    0.0222222,    0.0000000 ]
  distance_from_gamma:  0.147678783
  weight: 24   
  band:
  - # 1
    frequency:     1.5916492802
  - # 2
    frequency:     1.6242216262
  - # 3
    frequency:     5.9559881204
  - # 4
    frequency:     7.2548262718
  - # 5
    frequency:     8.6032416152
  - # 6
    frequency:     8.6081170155

- q-position: [   -0.4888889,    0.0222222,    0.0000000 ]
  distance_from_gamma:  0.152214286
  weight: 24   
  band:
  - # 1
    frequency:     1.5937691431
  - # 2
    frequency:     1.6160228424
  - # 3
    frequency:     5.9745068565
  - # 4
    frequency:     7.2424295641
  - # 5
    frequency:     8.6049490427
  - # 6
    frequency:     8.6074258419

- q-position: [   -0.4666667,    0.0222222,    0.0000000 ]
  distance_from_gamma:  0.145411129
  weight: 24   
  band:
  - # 1
    frequency:     1.6052003312
  - # 2
    frequency:     1.6170077744
  - # 3
    frequency:     5.9378615617
  - # 4
    frequency:     7.2667108787
  - # 5
    frequency:     8.6052105618
  - # 6
    frequency:     8.6052133025

- q-position: [   -0.4444444,    0.0222222,    0.0000000 ]
  distance_from_gamma:  0.138608595
  weight: 24   
  band:
  - # 1
    frequency:     1.6245657733
  - # 2
    frequency:     1.6267512159
  - # 3
    frequency:     5.8510926700
  - # 4
    frequency:     7.3225951895
  - # 5
    frequency:     8.6015631161
  - # 6
    frequency:     8.6042019509

- q-position: [   -0.4222222,    0.0222222,    0.0000000 ]
  distance_from_gamma:  0.131806781
  weight: 24   
  band:
  - # 1
    frequency:     1.6435463805
  - # 2
    frequency:     1.6493461248
  - # 3
    frequency:     5.7232108921
  - # 4
    frequency:     7.4009905681
  - # 5
    frequency:     8.5967688218
  - # 6
    frequency:     8.6022595681

- q-position: [   -0.4000000,    0.0222222,    0.0000000 ]
  distance_from_gamma:  0.125005804
  weight: 24   
  band:
  - # 1
    frequency:     1.6646489907
  - # 2
    frequency:     1.6762214424
  - # 3
    frequency:     5.5626097957
  - # 4
    frequency:     7.4933926816
  - # 5
    frequency:     8.5912852039
  - # 6
    frequency:     8.5998766857

- q-position: [   -0.3777778,    0.0222222,    0.0000000 ]
  distance_from_gamma:  0.118205807
  weight: 24   
  band:
  - # 1
    frequency:     1.6866304493
  - # 2
    frequency:     1.7014565212
  - # 3
    frequency:     5.3753738521
  - # 4
    frequency:     7.5936016295
  - # 5
    frequency:     8.5857056553
  - # 6
    frequency:     8.5976450039

- q-position: [   -0.3555556,    0.0222222,    0.0000000 ]
  distance_from_gamma:  0.111406972
  weight: 24   
  band:
  - # 1
    frequency:     1.7057538340
  - # 2
    frequency:     1.7212550279
  - # 3
    frequency:     5.1655562704
  - # 4
    frequency:     7.6974738416
  - # 5
    frequency:     8.5807096331
  - # 6
    frequency:     8.5962014682

- q-position: [   -0.3333333,    0.0222222,    0.0000000 ]
  distance_from_gamma:  0.104609524
  weight: 24   
  band:
  - # 1
    frequency:     1.7183081301
  - # 2
    frequency:     1.7320431687
  - # 3
    frequency:     4.9359002555
  - # 4
    frequency:     7.8022320281
  - # 5
    frequency:     8.5770024152
  - # 6
    frequency:     8.5961652759

- q-position: [   -0.3111111,    0.0222222,    0.0000000 ]
  distance_from_gamma:  0.097813753
  weight: 24   
  band:
  - # 1
    frequency:     1.7208701949
  - # 2
    frequency:     1.7306745990
  - # 3
    frequency:     4.6884189587
  - # 4
    frequency:     7.9059145991
  - # 5
    frequency:     8.5752490437
  - # 6
    frequency:     8.5980734764

- q-position: [   -0.2888889,    0.0222222,    0.0000000 ]
  distance_from_gamma:  0.091020034
  weight: 24   
  band:
  - # 1
    frequency:     1.7104905855
  - # 2
    frequency:     1.7145648250
  - # 3
    frequency:     4.4247616040
  - # 4
    frequency:     8.0070342172
  - # 5
    frequency:     8.5760086441
  - # 6
    frequency:     8.6023220153

- q-position: [   -0.2666667,    0.0222222,    0.0000000 ]
  distance_from_gamma:  0.084228864
  weight: 24   
  band:
  - # 1
    frequency:     1.6817678488
  - # 2
    frequency:     1.6848124071
  - # 3
    frequency:     4.1464205381
  - # 4
    frequency:     8.1043886574
  - # 5
    frequency:     8.5796762941
  - # 6
    frequency:     8.6091193194

- q-position: [   -0.2444444,    0.0222222,    0.0000000 ]
  distance_from_gamma:  0.077440912
  weight: 24   
  band:
  - # 1
    frequency:     1.6310066070
  - # 2
    frequency:     1.6421353010
  - # 3
    frequency:     3.8548376059
  - # 4
    frequency:     8.1969644775
  - # 5
    frequency:     8.5864394814
  - # 6
    frequency:     8.6184584004

- q-position: [   -0.2222222,    0.0222222,    0.0000000 ]
  distance_from_gamma:  0.070657108
  weight: 24   
  band:
  - # 1
    frequency:     1.5616667254
  - # 2
    frequency:     1.5814354694
  - # 3
    frequency:     3.5514508572
  - # 4
    frequency:     8.2838925472
  - # 5
    frequency:     8.5962546283
  - # 6
    frequency:     8.6301109880

- q-position: [   -0.2000000,    0.0222222,    0.0000000 ]
  distance_from_gamma:  0.063878772
  weight: 24   
  band:
  - # 1
    frequency:     1.4737623720
  - # 2
    frequency:     1.5023512578
  - # 3
    frequency:     3.2377082513
  - # 4
    frequency:     8.3644301632
  - # 5
    frequency:     8.6088463221
  - # 6
    frequency:     8.6436438772

- q-position: [   -0.1777778,    0.0222222,    0.0000000 ]
  distance_from_gamma:  0.057107852
  weight: 24   
  band:
  - # 1
    frequency:     1.3678837331
  - # 2
    frequency:     1.4051437908
  - # 3
    frequency:     2.9150665060
  - # 4
    frequency:     8.4379547964
  - # 5
    frequency:     8.6237284495
  - # 6
    frequency:     8.6584543614

- q-position: [   -0.1555556,    0.0222222,    0.0000000 ]
  distance_from_gamma:  0.050347339
  weight: 24   
  band:
  - # 1
    frequency:     1.2451375043
  - # 2
    frequency:     1.2906434603
  - # 3
    frequency:     2.5849897829
  - # 4
    frequency:     8.5039609046
  - # 5
    frequency:     8.6402432952
  - # 6
    frequency:     8.6738191679

- q-position: [   -0.1333333,    0.0222222,    0.0000000 ]
  distance_from_gamma:  0.043602075
  weight: 24   
  band:
  - # 1
    frequency:     1.1070953865
  - # 2
    frequency:     1.1601954605
  - # 3
    frequency:     2.2489650589
  - # 4
    frequency:     8.5620551983
  - # 5
    frequency:     8.6576126469
  - # 6
    frequency:     8.6889502589

- q-position: [   -0.1111111,    0.0222222,    0.0000000 ]
  distance_from_gamma:  0.036880426
  weight: 24   
  band:
  - # 1
    frequency:     0.9557747607
  - # 2
    frequency:     1.0156217673
  - # 3
    frequency:     1.9085641619
  - # 4
    frequency:     8.6119482137
  - # 5
    frequency:     8.6749944263
  - # 6
    frequency:     8.7030512051

- q-position: [   -0.0888889,    0.0222222,    0.0000000 ]
  distance_from_gamma:  0.030198169
  weight: 24   
  band:
  - # 1
    frequency:     0.7937049497
  - # 2
    frequency:     0.8592251571
  - # 3
    frequency:     1.5656286289
  - # 4
    frequency:     8.6534415059
  - # 5
    frequency:     8.6915392888
  - # 6
    frequency:     8.7153691933

- q-position: [   -0.0666667,    0.0222222,    0.0000000 ]
  distance_from_gamma:  0.023588800
  weight: 24   
  band:
  - # 1
    frequency:     0.6242400095
  - # 2
    frequency:     0.6938703335
  - # 3
    frequency:     1.2228300300
  - # 4
    frequency:     8.6864098107
  - # 5
    frequency:     8.7064442293
  - # 6
    frequency:     8.7252395079

- q-position: [   -0.0444444,    0.0222222,    0.0000000 ]
  distance_from_gamma:  0.017136866
  weight: 24   
  band:
  - # 1
    frequency:     0.4527560484
  - # 2
    frequency:     0.5230952237
  - # 3
    frequency:     0.8856996393
  - # 4
    frequency:     8.7107688308
  - # 5
    frequency:     8.7190113921
  - # 6
    frequency:     8.7321210080

- q-position: [   -0.0222222,    0.0222222,    0.0000000 ]
  distance_from_gamma:  0.011119867
  weight: 12   
  band:
  - # 1
    frequency:     0.2921098104
  - # 2
    frequency:     0.3500962402
  - # 3
    frequency:     0.5724790163
  - # 4
    frequency:     8.7263027875
  - # 5
    frequency:     8.7288386900
  - # 6
    frequency:     8.7356223929

- q-position: [    0.0444444,    0.0444444,    0.0000000 ]
  distance_from_gamma:  0.015725867
  weight: 6    
  band:
  - # 1
    frequency:     0.4926975162
  - # 2
    frequency:     0.4926975162
  - # 3
    frequency:     0.7629714601
  - # 4
    frequency:     8.7152809398
  - # 5
    frequency:     8.7152809398
  - # 6
    frequency:     8.7390525024

- q-position: [    0.0666667,    0.0444444,    0.0000000 ]
  distance_from_gamma:  0.020428500
  weight: 24   
  band:
  - # 1
    frequency:     0.6143854003
  - # 2
    frequency:     0.6281707039
  - # 3
    frequency:     1.0088112492
  - # 4
    frequency:     8.7001054398
  - # 5
    frequency:     8.7028762192
  - # 6
    frequency:     8.7379145009

- q-position: [    0.0888889,    0.0444444,    0.0000000 ]
  distance_from_gamma:  0.026078400
  weight: 24   
  band:
  - # 1
    frequency:     0.7486504169
  - # 2
    frequency:     0.7777920473
  - # 3
    frequency:     1.3111473630
  - # 4
    frequency:     8.6764351427
  - # 5
    frequency:     8.6877931708
  - # 6
    frequency:     8.7331107289

- q-position: [    0.1111111,    0.0444444,    0.0000000 ]
  distance_from_gamma:  0.032180442
  weight: 24   
  band:
  - # 1
    frequency:     0.8936766565
  - # 2
    frequency:     0.9286014520
  - # 3
    frequency:     1.6324467093
  - # 4
    frequency:     8.6443554091
  - # 5
    frequency:     8.6706855241
  - # 6
    frequency:     8.7249032136

- q-position: [    0.1333333,    0.0444444,    0.0000000 ]
  distance_from_gamma:  0.038520349
  weight: 24   
  band:
  - # 1
    frequency:     1.0411367055
  - # 2
    frequency:     1.0736063384
  - # 3
    frequency:     1.9603297428
  - # 4
    frequency:     8.6039156267
  - # 5
    frequency:     8.6523189574
  - # 6
    frequency:     8.7137873339

- q-position: [    0.1555556,    0.0444444,    0.0000000 ]
  distance_from_gamma:  0.044997693
  weight: 24   
  band:
  - # 1
    frequency:     1.1844875408
  - # 2
    frequency:     1.2084369606
  - # 3
    frequency:     2.2893371723
  - # 4
    frequency:     8.5551800909
  - # 5
    frequency:     8.6335331315
  - # 6
    frequency:     8.7004342735

- q-position: [    0.1777778,    0.0444444,    0.0000000 ]
  distance_from_gamma:  0.051560702
  weight: 24   
  band:
  - # 1
    frequency:     1.3190879134
  - # 2
    frequency:     1.3300614819
  - # 3
    frequency:     2.6162861994
  - # 4
    frequency:     8.4982699891
  - # 5
    frequency:     8.6151951575
  - # 6
    frequency:     8.6856336024

- q-position: [    0.2000000,    0.0444444,    0.0000000 ]
  distance_from_gamma:  0.058180394
  weight: 24   
  band:
  - # 1
    frequency:     1.4363012153
  - # 2
    frequency:     1.4415788212
  - # 3
    frequency:     2.9388820152
  - # 4
    frequency:     8.4333960003
  - # 5
    frequency:     8.5981460200
  - # 6
    frequency:     8.6702345712

- q-position: [    0.2222222,    0.0444444,    0.0000000 ]
  distance_from_gamma:  0.064839409
  weight: 24   
  band:
  - # 1
    frequency:     1.5256601930
  - # 2
    frequency:     1.5495007865
  - # 3
    frequency:     3.2552165052
  - # 4
    frequency:     8.3608815514
  - # 5
    frequency:     8.5831431765
  - # 6
    frequency:     8.6550855875

- q-position: [    0.2444444,    0.0444444,    0.0000000 ]
  distance_from_gamma:  0.071526767
  weight: 24   
  band:
  - # 1
    frequency:     1.5972850823
  - # 2
    frequency:     1.6411164507
  - # 3
    frequency:     3.5635667305
  - # 4
    frequency:     8.2811769434
  - # 5
    frequency:     8.5708043504
  - # 6
    frequency:     8.6409734153

- q-position: [    0.2666667,    0.0444444,    0.0000000 ]
  distance_from_gamma:  0.078235199
  weight: 24   
  band:
  - # 1
    frequency:     1.6509779452
  - # 2
    frequency:     1.7153486662
  - # 3
    frequency:     3.8623112683
  - # 4
    frequency:     8.1948659071
  - # 5
    frequency:     8.5615588971
  - # 6
    frequency:     8.6285651848

- q-position: [    0.2888889,    0.0444444,    0.0000000 ]
  distance_from_gamma:  0.084959713
  weight: 24   
  band:
  - # 1
    frequency:     1.6872236231
  - # 2
    frequency:     1.7717754071
  - # 3
    frequency:     4.1498952503
  - # 4
    frequency:     8.1026680029
  - # 5
    frequency:     8.5556134531
  - # 6
    frequency:     8.6183576978

- q-position: [    0.3111111,    0.0444444,    0.0000000 ]
  distance_from_gamma:  0.091696772
  weight: 24   
  band:
  - # 1
    frequency:     1.7072094388
  - # 2
    frequency:     1.8106458358
  - # 3
    frequency:     4.4248108312
  - # 4
    frequency:     8.0054427205
  - # 5
    frequency:     8.5529374479
  - # 6
    frequency:     8.6106394157

- q-position: [    0.3333333,    0.0444444,    0.0000000 ]
  distance_from_gamma:  0.098443800
  weight: 24   
  band:
  - # 1
    frequency:     1.7128221235
  - # 2
    frequency:     1.8328944122
  - # 3
    frequency:     4.6855708299
  - # 4
    frequency:     7.9042048352
  - # 5
    frequency:     8.5532715039
  - # 6
    frequency:     8.6054703129

- q-position: [    0.3555556,    0.0444444,    0.0000000 ]
  distance_from_gamma:  0.105198878
  weight: 24   