#

432 atoms
1 atom types

0.0 23.981102219873048 xlo xhi
0.0 20.76824373316145 ylo yhi
0.0 19.580487969404643 zlo zhi

11.990551109936526 11.990551109936526 6.922747911053822 xy xz yz


Atom Type Labels

1 Ge


Atoms

1 Ge 0.01 0.0 0.0
2 Ge 3.996850369978841 0.0 0.0
3 Ge 7.993700739957682 0.0 0.0
4 Ge 11.990551109936524 0.0 0.0
5 Ge 15.987401479915365 0.0 0.0
6 Ge 19.984251849894203 0.0 0.0
7 Ge 1.998425184989421 3.4613739555269083 0.0
8 Ge 5.995275554968263 3.4613739555269083 0.0
9 Ge 9.992125924947103 3.4613739555269083 0.0
10 Ge 13.988976294925944 3.4613739555269083 0.0
11 Ge 17.985826664904785 3.4613739555269083 0.0
12 Ge 21.982677034883626 3.4613739555269083 0.0
13 Ge 3.996850369978842 6.922747911053817 0.0
14 Ge 7.993700739957683 6.922747911053817 0.0
15 Ge 11.990551109936526 6.922747911053817 0.0
16 Ge 15.987401479915366 6.922747911053817 0.0
17 Ge 19.984251849894207 6.922747911053817 0.0
18 Ge 23.981102219873044 6.922747911053817 0.0
19 Ge 5.995275554968263 10.384121866580726 0.0
20 Ge 9.992125924947103 10.384121866580726 0.0
21 Ge 13.988976294925946 10.384121866580726 0.0
22 Ge 17.985826664904785 10.384121866580726 0.0
23 Ge 21.98267703488363 10.384121866580726 0.0
24 Ge 25.979527404862466 10.384121866580726 0.0
25 Ge 7.993700739957684 13.845495822107633 0.0
26 Ge 11.990551109936526 13.845495822107633 0.0
27 Ge 15.987401479915366 13.845495822107633 0.0
28 Ge 19.98425184989421 13.845495822107633 0.0
29 Ge 23.98110221987305 13.845495822107633 0.0
30 Ge 27.97795258985189 13.845495822107633 0.0
31 Ge 9.992125924947103 17.306869777634542 0.0
32 Ge 13.988976294925946 17.306869777634542 0.0
33 Ge 17.98582666490479 17.306869777634542 0.0
34 Ge 21.98267703488363 17.306869777634542 0.0
35 Ge 25.97952740486247 17.306869777634542 0.0
36 Ge 29.97637777484131 17.306869777634542 0.0
37 Ge 1.998425184989421 1.1537913185089703 3.2634146615674404
38 Ge 5.995275554968262 1.1537913185089703 3.2634146615674404
39 Ge 9.992125924947103 1.1537913185089703 3.2634146615674404
40 Ge 13.988976294925944 1.1537913185089703 3.2634146615674404
41 Ge 17.985826664904785 1.1537913185089703 3.2634146615674404
42 Ge 21.982677034883626 1.1537913185089703 3.2634146615674404
43 Ge 3.9968503699788416 4.615165274035878 3.2634146615674404
44 Ge 7.993700739957683 4.615165274035878 3.2634146615674404
45 Ge 11.990551109936524 4.615165274035878 3.2634146615674404
46 Ge 15.987401479915365 4.615165274035878 3.2634146615674404
47 Ge 19.98425184989421 4.615165274035878 3.2634146615674404
48 Ge 23.98110221987305 4.615165274035878 3.2634146615674404
49 Ge 5.995275554968263 8.076539229562787 3.2634146615674404
50 Ge 9.992125924947103 8.076539229562787 3.2634146615674404
51 Ge 13.988976294925948 8.076539229562787 3.2634146615674404
52 Ge 17.98582666490479 8.076539229562787 3.2634146615674404
53 Ge 21.98267703488363 8.076539229562787 3.2634146615674404
54 Ge 25.979527404862466 8.076539229562787 3.2634146615674404
55 Ge 7.993700739957684 11.537913185089696 3.2634146615674404
56 Ge 11.990551109936524 11.537913185089696 3.2634146615674404
57 Ge 15.987401479915365 11.537913185089696 3.2634146615674404
58 Ge 19.984251849894207 11.537913185089696 3.2634146615674404
59 Ge 23.98110221987305 11.537913185089696 3.2634146615674404
60 Ge 27.977952589851892 11.537913185089696 3.2634146615674404
61 Ge 9.992125924947105 14.999287140616604 3.2634146615674404
62 Ge 13.988976294925946 14.999287140616604 3.2634146615674404
63 Ge 17.98582666490479 14.999287140616604 3.2634146615674404
64 Ge 21.982677034883633 14.999287140616604 3.2634146615674404
65 Ge 25.979527404862477 14.999287140616604 3.2634146615674404
66 Ge 29.976377774841314 14.999287140616604 3.2634146615674404
67 Ge 11.990551109936524 18.460661096143507 3.2634146615674404
68 Ge 15.987401479915365 18.460661096143507 3.2634146615674404
69 Ge 19.98425184989421 18.460661096143507 3.2634146615674404
70 Ge 23.981102219873048 18.460661096143507 3.2634146615674404
71 Ge 27.977952589851892 18.460661096143507 3.2634146615674404
72 Ge 31.97480295983073 18.460661096143507 3.2634146615674404
73 Ge 3.996850369978842 2.3075826370179406 6.526829323134881
74 Ge 7.993700739957683 2.3075826370179406 6.526829323134881
75 Ge 11.990551109936524 2.3075826370179406 6.526829323134881
76 Ge 15.987401479915365 2.3075826370179406 6.526829323134881
77 Ge 19.984251849894207 2.3075826370179406 6.526829323134881
78 Ge 23.981102219873044 2.3075826370179406 6.526829323134881
79 Ge 5.995275554968263 5.76895659254485 6.526829323134881
80 Ge 9.992125924947105 5.76895659254485 6.526829323134881
81 Ge 13.988976294925946 5.76895659254485 6.526829323134881
82 Ge 17.98582666490479 5.76895659254485 6.526829323134881
83 Ge 21.98267703488363 5.76895659254485 6.526829323134881
84 Ge 25.97952740486247 5.76895659254485 6.526829323134881
85 Ge 7.993700739957683 9.230330548071755 6.526829323134881
86 Ge 11.990551109936526 9.230330548071755 6.526829323134881
87 Ge 15.987401479915366 9.230330548071755 6.526829323134881
88 Ge 19.984251849894207 9.230330548071755 6.526829323134881
89 Ge 23.981102219873048 9.230330548071755 6.526829323134881
90 Ge 27.977952589851885 9.230330548071755 6.526829323134881
91 Ge 9.992125924947105 12.691704503598665 6.526829323134881
92 Ge 13.988976294925948 12.691704503598665 6.526829323134881
93 Ge 17.98582666490479 12.691704503598665 6.526829323134881
94 Ge 21.982677034883626 12.691704503598665 6.526829323134881
95 Ge 25.979527404862466 12.691704503598665 6.526829323134881
96 Ge 29.97637777484131 12.691704503598665 6.526829323134881
97 Ge 11.990551109936526 16.153078459125574 6.526829323134881
98 Ge 15.987401479915366 16.153078459125574 6.526829323134881
99 Ge 19.984251849894207 16.153078459125574 6.526829323134881
100 Ge 23.98110221987305 16.153078459125574 6.526829323134881
101 Ge 27.977952589851895 16.153078459125574 6.526829323134881
102 Ge 31.97480295983073 16.153078459125574 6.526829323134881
103 Ge 13.988976294925944 19.614452414652483 6.526829323134881
104 Ge 17.98582666490479 19.614452414652483 6.526829323134881
105 Ge 21.982677034883626 19.614452414652483 6.526829323134881
106 Ge 25.979527404862466 19.614452414652483 6.526829323134881
107 Ge 29.97637777484131 19.614452414652483 6.526829323134881
108 Ge 33.97322814482015 19.614452414652483 6.526829323134881
109 Ge 5.995275554968264 3.461373955526911 9.790243984702322
110 Ge 9.992125924947103 3.461373955526911 9.790243984702322
111 Ge 13.988976294925946 3.461373955526911 9.790243984702322
112 Ge 17.985826664904785 3.461373955526911 9.790243984702322
113 Ge 21.98267703488363 3.461373955526911 9.790243984702322
114 Ge 25.979527404862466 3.461373955526911 9.790243984702322
115 Ge 7.993700739957683 6.922747911053818 9.790243984702322
116 Ge 11.990551109936526 6.922747911053818 9.790243984702322
117 Ge 15.98740147991537 6.922747911053818 9.790243984702322
118 Ge 19.984251849894207 6.922747911053818 9.790243984702322
119 Ge 23.98110221987305 6.922747911053818 9.790243984702322
120 Ge 27.977952589851892 6.922747911053818 9.790243984702322
121 Ge 9.992125924947105 10.384121866580728 9.790243984702322
122 Ge 13.988976294925948 10.384121866580728 9.790243984702322
123 Ge 17.98582666490479 10.384121866580728 9.790243984702322
124 Ge 21.98267703488363 10.384121866580728 9.790243984702322
125 Ge 25.979527404862473 10.384121866580728 9.790243984702322
126 Ge 29.97637777484131 10.384121866580728 9.790243984702322
127 Ge 11.990551109936526 13.845495822107635 9.790243984702322
128 Ge 15.98740147991537 13.845495822107635 9.790243984702322
129 Ge 19.984251849894207 13.845495822107635 9.790243984702322
130 Ge 23.981102219873048 13.845495822107635 9.790243984702322
131 Ge 27.977952589851892 13.845495822107635 9.790243984702322
132 Ge 31.97480295983073 13.845495822107635 9.790243984702322
133 Ge 13.988976294925948 17.306869777634546 9.790243984702322
134 Ge 17.98582666490479 17.306869777634546 9.790243984702322
135 Ge 21.98267703488363 17.306869777634546 9.790243984702322
136 Ge 25.979527404862477 17.306869777634546 9.790243984702322
137 Ge 29.976377774841314 17.306869777634546 9.790243984702322
138 Ge 33.973228144820155 17.306869777634546 9.790243984702322
139 Ge 15.987401479915366 20.768243733161455 9.790243984702322
140 Ge 19.98425184989421 20.768243733161455 9.790243984702322
141 Ge 23.98110221987305 20.768243733161455 9.790243984702322
142 Ge 27.977952589851892 20.768243733161455 9.790243984702322
143 Ge 31.974802959830733 20.768243733161455 9.790243984702322
144 Ge 35.97165332980957 20.768243733161455 9.790243984702322
145 Ge 7.993700739957684 4.615165274035881 13.053658646269762
146 Ge 11.990551109936526 4.615165274035881 13.053658646269762
147 Ge 15.987401479915366 4.615165274035881 13.053658646269762
148 Ge 19.984251849894207 4.615165274035881 13.053658646269762
149 Ge 23.981102219873048 4.615165274035881 13.053658646269762
150 Ge 27.97795258985189 4.615165274035881 13.053658646269762
151 Ge 9.992125924947105 8.07653922956279 13.053658646269762
152 Ge 13.988976294925948 8.07653922956279 13.053658646269762
153 Ge 17.98582666490479 8.07653922956279 13.053658646269762
154 Ge 21.98267703488363 8.07653922956279 13.053658646269762
155 Ge 25.97952740486247 8.07653922956279 13.053658646269762
156 Ge 29.976377774841314 8.07653922956279 13.053658646269762
157 Ge 11.990551109936526 11.5379131850897 13.053658646269762
158 Ge 15.987401479915366 11.5379131850897 13.053658646269762
159 Ge 19.98425184989421 11.5379131850897 13.053658646269762
160 Ge 23.98110221987305 11.5379131850897 13.053658646269762
161 Ge 27.977952589851892 11.5379131850897 13.053658646269762
162 Ge 31.97480295983073 11.5379131850897 13.053658646269762
163 Ge 13.988976294925948 14.999287140616607 13.053658646269762
164 Ge 17.98582666490479 14.999287140616607 13.053658646269762
165 Ge 21.98267703488363 14.999287140616607 13.053658646269762
166 Ge 25.97952740486247 14.999287140616607 13.053658646269762
167 Ge 29.976377774841314 14.999287140616607 13.053658646269762
168 Ge 33.97322814482015 14.999287140616607 13.053658646269762
169 Ge 15.987401479915366 18.46066109614351 13.053658646269762
170 Ge 19.98425184989421 18.46066109614351 13.053658646269762
171 Ge 23.98110221987305 18.46066109614351 13.053658646269762
172 Ge 27.977952589851892 18.46066109614351 13.053658646269762
173 Ge 31.974802959830733 18.46066109614351 13.053658646269762
174 Ge 35.97165332980957 18.46066109614351 13.053658646269762
175 Ge 17.98582666490479 21.92203505167042 13.053658646269762
176 Ge 21.98267703488363 21.92203505167042 13.053658646269762
177 Ge 25.979527404862473 21.92203505167042 13.053658646269762
178 Ge 29.976377774841314 21.92203505167042 13.053658646269762
179 Ge 33.97322814482015 21.92203505167042 13.053658646269762
180 Ge 37.97007851479899 21.92203505167042 13.053658646269762
181 Ge 9.992125924947105 5.768956592544852 16.3170733078372
182 Ge 13.988976294925948 5.768956592544852 16.3170733078372
183 Ge 17.98582666490479 5.768956592544852 16.3170733078372
184 Ge 21.98267703488363 5.768956592544852 16.3170733078372
185 Ge 25.97952740486247 5.768956592544852 16.3170733078372
186 Ge 29.976377774841314 5.768956592544852 16.3170733078372
187 Ge 11.990551109936526 9.23033054807176 16.3170733078372
188 Ge 15.987401479915368 9.23033054807176 16.3170733078372
189 Ge 19.98425184989421 9.23033054807176 16.3170733078372
190 Ge 23.98110221987305 9.23033054807176 16.3170733078372
191 Ge 27.977952589851895 9.23033054807176 16.3170733078372
192 Ge 31.97480295983073 9.23033054807176 16.3170733078372
193 Ge 13.988976294925948 12.691704503598666 16.3170733078372
194 Ge 17.98582666490479 12.691704503598666 16.3170733078372
195 Ge 21.98267703488363 12.691704503598666 16.3170733078372
196 Ge 25.979527404862466 12.691704503598666 16.3170733078372
197 Ge 29.97637777484131 12.691704503598666 16.3170733078372
198 Ge 33.97322814482015 12.691704503598666 16.3170733078372
199 Ge 15.987401479915368 16.153078459125577 16.3170733078372
200 Ge 19.98425184989421 16.153078459125577 16.3170733078372
201 Ge 23.98110221987305 16.153078459125577 16.3170733078372
202 Ge 27.977952589851895 16.153078459125577 16.3170733078372
203 Ge 31.974802959830733 16.153078459125577 16.3170733078372
204 Ge 35.97165332980958 16.153078459125577 16.3170733078372
205 Ge 17.98582666490479 19.614452414652483 16.3170733078372
206 Ge 21.98267703488363 19.614452414652483 16.3170733078372
207 Ge 25.97952740486247 19.614452414652483 16.3170733078372
208 Ge 29.976377774841314 19.614452414652483 16.3170733078372
209 Ge 33.973228144820155 19.614452414652483 16.3170733078372
210 Ge 37.97007851479899 19.614452414652483 16.3170733078372
211 Ge 19.984251849894207 23.075826370179392 16.3170733078372
212 Ge 23.98110221987305 23.075826370179392 16.3170733078372
213 Ge 27.977952589851892 23.075826370179392 16.3170733078372
214 Ge 31.97480295983073 23.075826370179392 16.3170733078372
215 Ge 35.97165332980958 23.075826370179392 16.3170733078372
216 Ge 39.968503699788414 23.075826370179392 16.3170733078372
217 Ge 1.9984251849894203 1.1537913185089694 0.8158536653918601
218 Ge 5.995275554968263 1.1537913185089694 0.8158536653918601
219 Ge 9.992125924947103 1.1537913185089694 0.8158536653918601
220 Ge 13.988976294925948 1.1537913185089694 0.8158536653918601
221 Ge 17.985826664904778 1.1537913185089694 0.8158536653918601
222 Ge 21.982677034883626 1.1537913185089694 0.8158536653918601
223 Ge 3.9968503699788402 4.615165274035877 0.8158536653918601
224 Ge 7.993700739957682 4.615165274035877 0.8158536653918601
225 Ge 11.990551109936524 4.615165274035877 0.8158536653918601
226 Ge 15.987401479915368 4.615165274035877 0.8158536653918601
227 Ge 19.984251849894207 4.615165274035877 0.8158536653918601
228 Ge 23.981102219873048 4.615165274035877 0.8158536653918601
229 Ge 5.995275554968263 8.076539229562787 0.8158536653918601
230 Ge 9.992125924947105 8.076539229562787 0.8158536653918601
231 Ge 13.988976294925946 8.076539229562787 0.8158536653918601
232 Ge 17.98582666490479 8.076539229562787 0.8158536653918601
233 Ge 21.98267703488363 8.076539229562787 0.8158536653918601
234 Ge 25.979527404862473 8.076539229562787 0.8158536653918601
235 Ge 7.993700739957684 11.537913185089694 0.8158536653918601
236 Ge 11.990551109936526 11.537913185089694 0.8158536653918601
237 Ge 15.987401479915366 11.537913185089694 0.8158536653918601
238 Ge 19.984251849894203 11.537913185089694 0.8158536653918601
239 Ge 23.981102219873044 11.537913185089694 0.8158536653918601
240 Ge 27.97795258985189 11.537913185089694 0.8158536653918601
241 Ge 9.992125924947105 14.999287140616605 0.8158536653918601
242 Ge 13.988976294925946 14.999287140616605 0.8158536653918601
243 Ge 17.98582666490478 14.999287140616605 0.8158536653918601
244 Ge 21.982677034883626 14.999287140616605 0.8158536653918601
245 Ge 25.979527404862463 14.999287140616605 0.8158536653918601
246 Ge 29.97637777484131 14.999287140616605 0.8158536653918601
247 Ge 11.990551109936526 18.460661096143507 0.8158536653918601
248 Ge 15.987401479915366 18.460661096143507 0.8158536653918601
249 Ge 19.984251849894203 18.460661096143507 0.8158536653918601
250 Ge 23.981102219873044 18.460661096143507 0.8158536653918601
251 Ge 27.977952589851885 18.460661096143507 0.8158536653918601
252 Ge 31.97480295983073 18.460661096143507 0.8158536653918601
253 Ge 3.996850369978841 2.30758263701794 4.0792683269593
254 Ge 7.993700739957682 2.30758263701794 4.0792683269593
255 Ge 11.990551109936524 2.30758263701794 4.0792683269593
256 Ge 15.987401479915365 2.30758263701794 4.0792683269593
257 Ge 19.984251849894203 2.30758263701794 4.0792683269593
258 Ge 23.981102219873048 2.30758263701794 4.0792683269593
259 Ge 5.995275554968262 5.768956592544848 4.0792683269593
260 Ge 9.992125924947103 5.768956592544848 4.0792683269593
261 Ge 13.988976294925946 5.768956592544848 4.0792683269593
262 Ge 17.98582666490479 5.768956592544848 4.0792683269593
263 Ge 21.98267703488363 5.768956592544848 4.0792683269593
264 Ge 25.979527404862473 5.768956592544848 4.0792683269593
265 Ge 7.993700739957683 9.230330548071755 4.0792683269593
266 Ge 11.990551109936526 9.230330548071755 4.0792683269593
267 Ge 15.987401479915365 9.230330548071755 4.0792683269593
268 Ge 19.98425184989421 9.230330548071755 4.0792683269593
269 Ge 23.98110221987305 9.230330548071755 4.0792683269593
270 Ge 27.977952589851892 9.230330548071755 4.0792683269593
271 Ge 9.992125924947103 12.691704503598663 4.0792683269593
272 Ge 13.988976294925948 12.691704503598663 4.0792683269593
273 Ge 17.98582666490479 12.691704503598663 4.0792683269593
274 Ge 21.98267703488363 12.691704503598663 4.0792683269593
275 Ge 25.97952740486247 12.691704503598663 4.0792683269593
276 Ge 29.97637777484131 12.691704503598663 4.0792683269593
277 Ge 11.990551109936526 16.153078459125574 4.0792683269593
278 Ge 15.987401479915363 16.153078459125574 4.0792683269593
279 Ge 19.984251849894207 16.153078459125574 4.0792683269593
280 Ge 23.981102219873048 16.153078459125574 4.0792683269593
281 Ge 27.97795258985189 16.153078459125574 4.0792683269593
282 Ge 31.974802959830733 16.153078459125574 4.0792683269593
283 Ge 13.988976294925948 19.614452414652483 4.0792683269593
284 Ge 17.98582666490479 19.614452414652483 4.0792683269593
285 Ge 21.98267703488363 19.614452414652483 4.0792683269593
286 Ge 25.97952740486247 19.614452414652483 4.0792683269593
287 Ge 29.976377774841314 19.614452414652483 4.0792683269593
288 Ge 33.973228144820155 19.614452414652483 4.0792683269593
289 Ge 5.995275554968263 3.4613739555269105 7.342682988526741
290 Ge 9.992125924947103 3.4613739555269105 7.342682988526741
291 Ge 13.988976294925944 3.4613739555269105 7.342682988526741
292 Ge 17.985826664904785 3.4613739555269105 7.342682988526741
293 Ge 21.982677034883626 3.4613739555269105 7.342682988526741
294 Ge 25.979527404862473 3.4613739555269105 7.342682988526741
295 Ge 7.993700739957683 6.922747911053818 7.342682988526741
296 Ge 11.990551109936526 6.922747911053818 7.342682988526741
297 Ge 15.987401479915366 6.922747911053818 7.342682988526741
298 Ge 19.98425184989421 6.922747911053818 7.342682988526741
299 Ge 23.98110221987305 6.922747911053818 7.342682988526741
300 Ge 27.977952589851892 6.922747911053818 7.342682988526741
301 Ge 9.992125924947105 10.384121866580728 7.342682988526741
302 Ge 13.988976294925948 10.384121866580728 7.342682988526741
303 Ge 17.98582666490479 10.384121866580728 7.342682988526741
304 Ge 21.982677034883633 10.384121866580728 7.342682988526741
305 Ge 25.979527404862473 10.384121866580728 7.342682988526741
306 Ge 29.976377774841318 10.384121866580728 7.342682988526741
307 Ge 11.990551109936526 13.845495822107635 7.342682988526741
308 Ge 15.987401479915366 13.845495822107635 7.342682988526741
309 Ge 19.98425184989421 13.845495822107635 7.342682988526741
310 Ge 23.98110221987305 13.845495822107635 7.342682988526741
311 Ge 27.977952589851892 13.845495822107635 7.342682988526741
312 Ge 31.974802959830736 13.845495822107635 7.342682988526741
313 Ge 13.988976294925944 17.306869777634542 7.342682988526741
314 Ge 17.98582666490479 17.306869777634542 7.342682988526741
315 Ge 21.98267703488363 17.306869777634542 7.342682988526741
316 Ge 25.97952740486247 17.306869777634542 7.342682988526741
317 Ge 29.976377774841314 17.306869777634542 7.342682988526741
318 Ge 33.97322814482015 17.306869777634542 7.342682988526741
319 Ge 15.987401479915366 20.76824373316145 7.342682988526741
320 Ge 19.98425184989421 20.76824373316145 7.342682988526741
321 Ge 23.98110221987305 20.76824373316145 7.342682988526741
322 Ge 27.977952589851895 20.76824373316145 7.342682988526741
323 Ge 31.974802959830733 20.76824373316145 7.342682988526741
324 Ge 35.97165332980958 20.76824373316145 7.342682988526741
325 Ge 7.993700739957684 4.61516527403588 10.606097650094181
326 Ge 11.990551109936526 4.61516527403588 10.606097650094181
327 Ge 15.987401479915366 4.61516527403588 10.606097650094181
328 Ge 19.98425184989421 4.61516527403588 10.606097650094181
329 Ge 23.981102219873044 4.61516527403588 10.606097650094181
330 Ge 27.97795258985189 4.61516527403588 10.606097650094181
331 Ge 9.992125924947103 8.076539229562789 10.606097650094181
332 Ge 13.988976294925948 8.076539229562789 10.606097650094181
333 Ge 17.98582666490479 8.076539229562789 10.606097650094181
334 Ge 21.98267703488363 8.076539229562789 10.606097650094181
335 Ge 25.97952740486247 8.076539229562789 10.606097650094181
336 Ge 29.97637777484131 8.076539229562789 10.606097650094181
337 Ge 11.990551109936526 11.537913185089698 10.606097650094181
338 Ge 15.987401479915366 11.537913185089698 10.606097650094181
339 Ge 19.984251849894207 11.537913185089698 10.606097650094181
340 Ge 23.98110221987305 11.537913185089698 10.606097650094181
341 Ge 27.977952589851892 11.537913185089698 10.606097650094181
342 Ge 31.97480295983074 11.537913185089698 10.606097650094181
343 Ge 13.988976294925948 14.999287140616605 10.606097650094181
344 Ge 17.98582666490479 14.999287140616605 10.606097650094181
345 Ge 21.98267703488363 14.999287140616605 10.606097650094181
346 Ge 25.97952740486247 14.999287140616605 10.606097650094181
347 Ge 29.97637777484131 14.999287140616605 10.606097650094181
348 Ge 33.973228144820155 14.999287140616605 10.606097650094181
349 Ge 15.987401479915365 18.46066109614351 10.606097650094181
350 Ge 19.984251849894207 18.46066109614351 10.606097650094181
351 Ge 23.981102219873044 18.46066109614351 10.606097650094181
352 Ge 27.977952589851885 18.46066109614351 10.606097650094181
353 Ge 31.974802959830722 18.46066109614351 10.606097650094181
354 Ge 35.97165332980957 18.46066109614351 10.606097650094181
355 Ge 17.98582666490479 21.92203505167042 10.606097650094181
356 Ge 21.98267703488363 21.92203505167042 10.606097650094181
357 Ge 25.97952740486247 21.92203505167042 10.606097650094181
358 Ge 29.976377774841314 21.92203505167042 10.606097650094181
359 Ge 33.973228144820155 21.92203505167042 10.606097650094181
360 Ge 37.97007851479899 21.92203505167042 10.606097650094181
361 Ge 9.992125924947103 5.768956592544851 13.869512311661621
362 Ge 13.988976294925944 5.768956592544851 13.869512311661621
363 Ge 17.98582666490479 5.768956592544851 13.869512311661621
364 Ge 21.98267703488363 5.768956592544851 13.869512311661621
365 Ge 25.979527404862463 5.768956592544851 13.869512311661621
366 Ge 29.97637777484131 5.768956592544851 13.869512311661621
367 Ge 11.990551109936526 9.230330548071759 13.869512311661621
368 Ge 15.987401479915365 9.230330548071759 13.869512311661621
369 Ge 19.984251849894207 9.230330548071759 13.869512311661621
370 Ge 23.981102219873048 9.230330548071759 13.869512311661621
371 Ge 27.97795258985189 9.230330548071759 13.869512311661621
372 Ge 31.97480295983073 9.230330548071759 13.869512311661621
373 Ge 13.988976294925946 12.691704503598666 13.869512311661621
374 Ge 17.98582666490479 12.691704503598666 13.869512311661621
375 Ge 21.982677034883626 12.691704503598666 13.869512311661621
376 Ge 25.97952740486247 12.691704503598666 13.869512311661621
377 Ge 29.976377774841314 12.691704503598666 13.869512311661621
378 Ge 33.973228144820155 12.691704503598666 13.869512311661621
379 Ge 15.987401479915365 16.153078459125577 13.869512311661621
380 Ge 19.984251849894207 16.153078459125577 13.869512311661621
381 Ge 23.981102219873048 16.153078459125577 13.869512311661621
382 Ge 27.977952589851892 16.153078459125577 13.869512311661621
383 Ge 31.97480295983073 16.153078459125577 13.869512311661621
384 Ge 35.97165332980958 16.153078459125577 13.869512311661621
385 Ge 17.985826664904785 19.614452414652487 13.869512311661621
386 Ge 21.982677034883626 19.614452414652487 13.869512311661621
387 Ge 25.979527404862466 19.614452414652487 13.869512311661621
388 Ge 29.97637777484131 19.614452414652487 13.869512311661621
389 Ge 33.97322814482015 19.614452414652487 13.869512311661621
390 Ge 37.97007851479899 19.614452414652487 13.869512311661621
391 Ge 19.984251849894207 23.075826370179396 13.869512311661621
392 Ge 23.981102219873048 23.075826370179396 13.869512311661621
393 Ge 27.977952589851892 23.075826370179396 13.869512311661621
394 Ge 31.97480295983073 23.075826370179396 13.869512311661621
395 Ge 35.97165332980958 23.075826370179396 13.869512311661621
396 Ge 39.968503699788414 23.075826370179396 13.869512311661621
397 Ge 11.990551109936526 6.922747911053822 17.13292697322906
398 Ge 15.987401479915366 6.922747911053822 17.13292697322906
399 Ge 19.984251849894207 6.922747911053822 17.13292697322906
400 Ge 23.981102219873048 6.922747911053822 17.13292697322906
401 Ge 27.977952589851885 6.922747911053822 17.13292697322906
402 Ge 31.97480295983073 6.922747911053822 17.13292697322906
403 Ge 13.988976294925948 10.384121866580731 17.13292697322906
404 Ge 17.98582666490479 10.384121866580731 17.13292697322906
405 Ge 21.98267703488363 10.384121866580731 17.13292697322906
406 Ge 25.97952740486247 10.384121866580731 17.13292697322906
407 Ge 29.97637777484131 10.384121866580731 17.13292697322906
408 Ge 33.973228144820155 10.384121866580731 17.13292697322906
409 Ge 15.987401479915368 13.845495822107637 17.13292697322906
410 Ge 19.984251849894207 13.845495822107637 17.13292697322906
411 Ge 23.981102219873048 13.845495822107637 17.13292697322906
412 Ge 27.977952589851892 13.845495822107637 17.13292697322906
413 Ge 31.97480295983073 13.845495822107637 17.13292697322906
414 Ge 35.971653329809584 13.845495822107637 17.13292697322906
415 Ge 17.98582666490479 17.306869777634546 17.13292697322906
416 Ge 21.98267703488363 17.306869777634546 17.13292697322906
417 Ge 25.97952740486247 17.306869777634546 17.13292697322906
418 Ge 29.97637777484131 17.306869777634546 17.13292697322906
419 Ge 33.97322814482015 17.306869777634546 17.13292697322906
420 Ge 37.97007851479899 17.306869777634546 17.13292697322906
421 Ge 19.984251849894207 20.768243733161455 17.13292697322906
422 Ge 23.981102219873048 20.768243733161455 17.13292697322906
423 Ge 27.97795258985189 20.768243733161455 17.13292697322906
424 Ge 31.974802959830726 20.768243733161455 17.13292697322906
425 Ge 35.97165332980958 20.768243733161455 17.13292697322906
426 Ge 39.968503699788414 20.768243733161455 17.13292697322906
427 Ge 21.982677034883633 24.229617688688368 17.13292697322906
428 Ge 25.97952740486247 24.229617688688368 17.13292697322906
429 Ge 29.976377774841314 24.229617688688368 17.13292697322906
430 Ge 33.973228144820155 24.229617688688368 17.13292697322906
431 Ge 37.97007851479899 24.229617688688368 17.13292697322906
432 Ge 41.96692888477784 24.229617688688368 17.13292697322906