# Thermal properties / unit cell (natom)

unit:
  temperature:   K
  free_energy:   kJ/mol
  entropy:       J/K/mol
  heat_capacity: J/K/mol

natom: 2    
cutoff_frequency: 0.00000
num_modes: 546750
num_integrated_modes: 546747

zero_point_energy:       6.8503540

thermal_properties:
- temperature:         0.0000000
  free_energy:         6.8503540
  entropy:             0.0000000
  heat_capacity:       0.0000000
  energy:              6.8503540

- temperature:        10.0000000
  free_energy:         6.8502627
  entropy:             0.0424468
  heat_capacity:       0.1684430
  energy:              6.8506872

- temperature:        20.0000000
  free_energy:         6.8474850
  entropy:             0.7002119
  heat_capacity:       2.4978475
  energy:              6.8614893

- temperature:        30.0000000
  free_energy:         6.8325048
  entropy:             2.4426840
  heat_capacity:       6.3909366
  energy:              6.9057853

- temperature:        40.0000000
  free_energy:         6.7966551
  entropy:             4.7886741
  heat_capacity:      10.0177020
  energy:              6.9882021

- temperature:        50.0000000
  free_energy:         6.7359313
  entropy:             7.3822778
  heat_capacity:      13.3189672
  energy:              7.1050452

- temperature:        60.0000000
  free_energy:         6.6486251
  entropy:            10.0935396
  heat_capacity:      16.5098421
  energy:              7.2542374

- temperature:        70.0000000
  free_energy:         6.5338301
  entropy:            12.8743305
  heat_capacity:      19.6346643
  energy:              7.4350332

- temperature:        80.0000000
  free_energy:         6.3910099
  entropy:            15.6937241
  heat_capacity:      22.6324707
  energy:              7.6465078

- temperature:        90.0000000
  free_energy:         6.2199222
  entropy:            18.5232248
  heat_capacity:      25.4302165
  energy:              7.8870124

- temperature:       100.0000000
  free_energy:         6.0205988
  entropy:            21.3368673
  heat_capacity:      27.9810020
  energy:              8.1542855

- temperature:       110.0000000
  free_energy:         5.7933102
  entropy:            24.1130903
  heat_capacity:      30.2678029
  energy:              8.4457501

- temperature:       120.0000000
  free_energy:         5.5385169
  entropy:            26.8354944
  heat_capacity:      32.2954222
  energy:              8.7587762

- temperature:       130.0000000
  free_energy:         5.2568185
  entropy:            29.4925692
  heat_capacity:      34.0814162
  energy:              9.0908525

- temperature:       140.0000000
  free_energy:         4.9489083
  entropy:            32.0769215
  heat_capacity:      35.6492753
  energy:              9.4396773

- temperature:       150.0000000
  free_energy:         4.6155366
  entropy:            34.5843870
  heat_capacity:      37.0241059
  energy:              9.8031947

- temperature:       160.0000000
  free_energy:         4.2574829
  entropy:            37.0132146
  heat_capacity:      38.2302031
  energy:             10.1795972

- temperature:       170.0000000
  free_energy:         3.8755346
  entropy:            39.3633896
  heat_capacity:      39.2898562
  energy:             10.5673109

- temperature:       180.0000000
  free_energy:         3.4704734
  entropy:            41.6361065
  heat_capacity:      40.2228871
  energy:             10.9649725

- temperature:       190.0000000
  free_energy:         3.0430641
  entropy:            43.8333705
  heat_capacity:      41.0465947
  energy:             11.3714045

- temperature:       200.0000000
  free_energy:         2.5940491
  entropy:            45.9577046
  heat_capacity:      41.7759051
  energy:             11.7855900

- temperature:       210.0000000
  free_energy:         2.1241437
  entropy:            48.0119386
  heat_capacity:      42.4236118
  energy:             12.2066508

- temperature:       220.0000000
  free_energy:         1.6340340
  entropy:            49.9990582
  heat_capacity:      43.0006410
  energy:             12.6338268

- temperature:       230.0000000
  free_energy:         1.1243761
  entropy:            51.9221005
  heat_capacity:      43.5163112
  energy:             13.0664592

- temperature:       240.0000000
  free_energy:         0.5957955
  entropy:            53.7840816
  heat_capacity:      43.9785696
  energy:             13.5039751

- temperature:       250.0000000
  free_energy:         0.0488882
  entropy:            55.5879485
  heat_capacity:      44.3942006
  energy:             13.9458753

- temperature:       260.0000000
  free_energy:        -0.5157792
  entropy:            57.3365476
  heat_capacity:      44.7690058
  energy:             14.3917232

- temperature:       270.0000000
  free_energy:        -1.0976677
  entropy:            59.0326060
  heat_capacity:      45.1079568
  energy:             14.8411360

- temperature:       280.0000000
  free_energy:        -1.6962649
  entropy:            60.6787212
  heat_capacity:      45.4153248
  energy:             15.2937771

- temperature:       290.0000000
  free_energy:        -2.3110838
  entropy:            62.2773563
  heat_capacity:      45.6947889
  energy:             15.7493495

- temperature:       300.0000000
  free_energy:        -2.9416615
  entropy:            63.8308400
  heat_capacity:      45.9495273
  energy:             16.2075905

- temperature:       310.0000000
  free_energy:        -3.5875575
  entropy:            65.3413688
  heat_capacity:      46.1822930
  energy:             16.6682669

- temperature:       320.0000000
  free_energy:        -4.2483526
  entropy:            66.8110116
  heat_capacity:      46.3954780
  energy:             17.1311711

- temperature:       330.0000000
  free_energy:        -4.9236479
  entropy:            68.2417152
  heat_capacity:      46.5911665
  energy:             17.5961181

- temperature:       340.0000000
  free_energy:        -5.6130632
  entropy:            69.6353101
  heat_capacity:      46.7711796
  energy:             18.0629422

- temperature:       350.0000000
  free_energy:        -6.3162362
  entropy:            70.9935170
  heat_capacity:      46.9371134
  energy:             18.5314948

- temperature:       360.0000000
  free_energy:        -7.0328210
  entropy:            72.3179535
  heat_capacity:      47.0903701
  energy:             19.0016422

- temperature:       370.0000000
  free_energy:        -7.7624877
  entropy:            73.6101401
  heat_capacity:      47.2321854
  energy:             19.4732641

- temperature:       380.0000000
  free_energy:        -8.5049211
  entropy:            74.8715067
  heat_capacity:      47.3636509
  energy:             19.9462515

- temperature:       390.0000000
  free_energy:        -9.2598196
  entropy:            76.1033986
  heat_capacity:      47.4857333
  energy:             20.4205058

- temperature:       400.0000000
  free_energy:       -10.0268950
  entropy:            77.3070819
  heat_capacity:      47.5992910
  energy:             20.8959377

- temperature:       410.0000000
  free_energy:       -10.8058712
  entropy:            78.4837488
  heat_capacity:      47.7050881
  energy:             21.3724658

- temperature:       420.0000000
  free_energy:       -11.5964837
  entropy:            79.6345229
  heat_capacity:      47.8038063
  energy:             21.8500159

- temperature:       430.0000000
  free_energy:       -12.3984789
  entropy:            80.7604634
  heat_capacity:      47.8960548
  energy:             22.3285204

- temperature:       440.0000000
  free_energy:       -13.2116135
  entropy:            81.8625700
  heat_capacity:      47.9823800
  energy:             22.8079173

- temperature:       450.0000000
  free_energy:       -14.0356540
  entropy:            82.9417864
  heat_capacity:      48.0632721
  energy:             23.2881499

- temperature:       460.0000000
  free_energy:       -14.8703760
  entropy:            83.9990044
  heat_capacity:      48.1391727
  energy:             23.7691661

- temperature:       470.0000000
  free_energy:       -15.7155636
  entropy:            85.0350672
  heat_capacity:      48.2104795
  energy:             24.2509180

- temperature:       480.0000000
  free_energy:       -16.5710094
  entropy:            86.0507729
  heat_capacity:      48.2775522
  energy:             24.7333615

- temperature:       490.0000000
  free_energy:       -17.4365137
  entropy:            87.0468770
  heat_capacity:      48.3407161
  energy:             25.2164560

- temperature:       500.0000000
  free_energy:       -18.3118840
  entropy:            88.0240957
  heat_capacity:      48.4002662
  energy:             25.7001638

- temperature:       510.0000000
  free_energy:       -19.1969350
  entropy:            88.9831081
  heat_capacity:      48.4564705
  energy:             26.1844502

- temperature:       520.0000000
  free_energy:       -20.0914877
  entropy:            89.9245588
  heat_capacity:      48.5095729
  energy:             26.6692829

- temperature:       530.0000000
  free_energy:       -20.9953696
  entropy:            90.8490598
  heat_capacity:      48.5597956
  energy:             27.1546321

- temperature:       540.0000000
  free_energy:       -21.9084143
  entropy:            91.7571929
  heat_capacity:      48.6073413
  energy:             27.6404699

- temperature:       550.0000000
  free_energy:       -22.8304608
  entropy:            92.6495116
  heat_capacity:      48.6523956
  energy:             28.1267706

- temperature:       560.0000000
  free_energy:       -23.7613536
  entropy:            93.5265422
  heat_capacity:      48.6951281
  energy:             28.6135101

- temperature:       570.0000000
  free_energy:       -24.7009423
  entropy:            94.3887864
  heat_capacity:      48.7356947
  energy:             29.1006659

- temperature:       580.0000000
  free_energy:       -25.6490816
  entropy:            95.2367221
  heat_capacity:      48.7742381
  energy:             29.5882172

- temperature:       590.0000000
  free_energy:       -26.6056306
  entropy:            96.0708051
  heat_capacity:      48.8108899
  energy:             30.0761444

- temperature:       600.0000000
  free_energy:       -27.5704530
  entropy:            96.8914702
  heat_capacity:      48.8457709
  energy:             30.5644291

- temperature:       610.0000000
  free_energy:       -28.5434167
  entropy:            97.6991327
  heat_capacity:      48.8789928
  energy:             31.0530543

- temperature:       620.0000000
  free_energy:       -29.5243936
  entropy:            98.4941894
  heat_capacity:      48.9106585
  energy:             31.5420038

- temperature:       630.0000000
  free_energy:       -30.5132597
  entropy:            99.2770195
  heat_capacity:      48.9408631
  energy:             32.0312626

- temperature:       640.0000000
  free_energy:       -31.5098945
  entropy:           100.0479858
  heat_capacity:      48.9696946
  energy:             32.5208165

- temperature:       650.0000000
  free_energy:       -32.5141810
  entropy:           100.8074357
  heat_capacity:      48.9972345
  energy:             33.0106522

- temperature:       660.0000000
  free_energy:       -33.5260059
  entropy:           101.5557015
  heat_capacity:      49.0235585
  energy:             33.5007571

- temperature:       670.0000000
  free_energy:       -34.5452588
  entropy:           102.2931020
  heat_capacity:      49.0487367
  energy:             33.9911195

- temperature:       680.0000000
  free_energy:       -35.5718327
  entropy:           103.0199426
  heat_capacity:      49.0728343
  energy:             34.4817282

- temperature:       690.0000000
  free_energy:       -36.6056235
  entropy:           103.7365163
  heat_capacity:      49.0959120
  energy:             34.9725728

- temperature:       700.0000000
  free_energy:       -37.6465298
  entropy:           104.4431044
  heat_capacity:      49.1180262
  energy:             35.4636433

- temperature:       710.0000000
  free_energy:       -38.6944532
  entropy:           105.1399767
  heat_capacity:      49.1392297
  energy:             35.9549303

- temperature:       720.0000000
  free_energy:       -39.7492978
  entropy:           105.8273928
  heat_capacity:      49.1595715
  energy:             36.4464250

- temperature:       730.0000000
  free_energy:       -40.8109703
  entropy:           106.5056018
  heat_capacity:      49.1790974
  energy:             36.9381190

- temperature:       740.0000000
  free_energy:       -41.8793800
  entropy:           107.1748437
  heat_capacity:      49.1978504
  energy:             37.4300044

- temperature:       750.0000000
  free_energy:       -42.9544381
  entropy:           107.8353489
  heat_capacity:      49.2158706
  energy:             37.9220736

- temperature:       760.0000000
  free_energy:       -44.0360585
  entropy:           108.4873395
  heat_capacity:      49.2331954
  energy:             38.4143195

- temperature:       770.0000000
  free_energy:       -45.1241572
  entropy:           109.1310292
  heat_capacity:      49.2498601
  energy:             38.9067353

- temperature:       780.0000000
  free_energy:       -46.2186522
  entropy:           109.7666240
  heat_capacity:      49.2658976
  energy:             39.3993146

- temperature:       790.0000000
  free_energy:       -47.3194634
  entropy:           110.3943223
  heat_capacity:      49.2813390
  energy:             39.8920512

- temperature:       800.0000000
  free_energy:       -48.4265129
  entropy:           111.0143155
  heat_capacity:      49.2962132
  energy:             40.3849395

- temperature:       810.0000000
  free_energy:       -49.5397246
  entropy:           111.6267880
  heat_capacity:      49.3105477
  energy:             40.8779737

- temperature:       820.0000000
  free_energy:       -50.6590242
  entropy:           112.2319182
  heat_capacity:      49.3243681
  energy:             41.3711487

- temperature:       830.0000000
  free_energy:       -51.7843391
  entropy:           112.8298777
  heat_capacity:      49.3376987
  energy:             41.8644594

- temperature:       840.0000000
  free_energy:       -52.9155984
  entropy:           113.4208328
  heat_capacity:      49.3505622
  energy:             42.3579011

- temperature:       850.0000000
  free_energy:       -54.0527329
  entropy:           114.0049437
  heat_capacity:      49.3629802
  energy:             42.8514692

- temperature:       860.0000000
  free_energy:       -55.1956750
  entropy:           114.5823654
  heat_capacity:      49.3749729
  energy:             43.3451593

- temperature:       870.0000000
  free_energy:       -56.3443584
  entropy:           115.1532480
  heat_capacity:      49.3865595
  energy:             43.8389673

- temperature:       880.0000000
  free_energy:       -57.4987186
  entropy:           115.7177362
  heat_capacity:      49.3977580
  energy:             44.3328892

- temperature:       890.0000000
  free_energy:       -58.6586923
  entropy:           116.2759703
  heat_capacity:      49.4085855
  energy:             44.8269212

- temperature:       900.0000000
  free_energy:       -59.8242176
  entropy:           116.8280860
  heat_capacity:      49.4190583
  energy:             45.3210597

- temperature:       910.0000000
  free_energy:       -60.9952341
  entropy:           117.3742146
  heat_capacity:      49.4291915
  energy:             45.8153012

- temperature:       920.0000000
  free_energy:       -62.1716824
  entropy:           117.9144836
  heat_capacity:      49.4389997
  energy:             46.3096425

- temperature:       930.0000000
  free_energy:       -63.3535046
  entropy:           118.4490159
  heat_capacity:      49.4484966
  energy:             46.8040802

- temperature:       940.0000000
  free_energy:       -64.5406440
  entropy:           118.9779313
  heat_capacity:      49.4576951
  energy:             47.2986114

- temperature:       950.0000000
  free_energy:       -65.7330449
  entropy:           119.5013453
  heat_capacity:      49.4666077
  energy:             47.7932332

- temperature:       960.0000000
  free_energy:       -66.9306529
  entropy:           120.0193704
  heat_capacity:      49.4752460
  energy:             48.2879426

- temperature:       970.0000000
  free_energy:       -68.1334147
  entropy:           120.5321154
  heat_capacity:      49.4836211
  energy:             48.7827372

- temperature:       980.0000000
  free_energy:       -69.3412780
  entropy:           121.0396859
  heat_capacity:      49.4917436
  energy:             49.2776142

- temperature:       990.0000000
  free_energy:       -70.5541915
  entropy:           121.5421846
  heat_capacity:      49.4996235
  energy:             49.7725713

- temperature:      1000.0000000
  free_energy:       -71.7721051
  entropy:           122.0397110
  heat_capacity:      49.5072704
  energy:             50.2676059
