12
Lattice="6.1115595793661415 0.0 0.0 0.0 6.1115595793661415 0.0 0.0 0.0 7.223863422810779" Properties=species:S:1:pos:R:3:forces:R:3 virial="-4.508963209426326 0.0 0.0 0.0 -4.508963209426326 0.0 0.0 0.0 -4.166688110286207" config_type=st12 enaergy=-57.4054095 stress="0.016711024098348896 -0.0 -0.0 -0.0 0.016711024098348896 -0.0 -0.0 -0.0 0.015442491363808571" free_energy=-52.4054095 pbc="T T T"
Ge       0.53415031       0.53415031       0.00000000       0.00835789       0.00835789      -0.00000000
Ge      -0.53415031      -0.53415031       3.61193171      -0.00835789      -0.00835789      -0.00000000
Ge       2.52162948       3.58993010       5.41789757      -0.00835789       0.00835789      -0.00000000
Ge       3.58993010       2.52162948       1.80596586       0.00835789      -0.00835789      -0.00000000
Ge       1.04446553       2.26372167       1.82402551       0.00020814      -0.01895727      -0.09557256
Ge      -1.04446553      -2.26372167       5.43595723      -0.00020814       0.01895727      -0.09557256
Ge       0.79205812       4.10024532       7.24192308       0.01895727       0.00020814      -0.09557256
Ge       5.31950146       2.01131426       3.62999137      -0.01895727      -0.00020814      -0.09557256
Ge       2.26372167       1.04446553      -1.82402551      -0.01895727       0.00020814       0.09557256
Ge      -2.26372167      -1.04446553       1.78790620       0.01895727      -0.00020814       0.09557256
Ge       2.01131426       5.31950146       3.59387205      -0.00020814      -0.01895727       0.09557256
Ge       4.10024532       0.79205812      -0.01805966       0.00020814       0.01895727       0.09557256
12
Lattice="5.813713006522569 0.0 0.0 0.0 5.813713006522569 0.0 0.0 0.0 6.8718087737096765" Properties=species:S:1:pos:R:3:forces:R:3 virial="12.622769288801912 0.0 0.0 0.0 12.622769288801912 0.0 0.0 0.0 11.97644443742244" config_type=liquid_123 energy=-51.86585739 stress="-0.0543471032591415 -0.0 -0.0 -0.0 -0.0543471032591415 -0.0 -0.0 -0.0 -0.05156436338382501" free_energy=-51.86585739 pbc="T T T"
Ge       0.50811852       0.50811852       0.00000000      -0.03336114      -0.03336114      -0.00000000
Ge      -0.50811852      -0.50811852       3.43590439       0.03336114       0.03336114      -0.00000000
Ge       2.39873799       3.41497502       5.15385658       0.03336114      -0.03336114      -0.00000000
Ge       3.41497502       2.39873799       1.71795219      -0.03336114       0.03336114      -0.00000000
Ge       0.99356355       2.15339930       1.73513172      -0.00049397       0.03962194       0.28699701
Ge      -0.99356355      -2.15339930       5.17103610       0.00049397      -0.03962194       0.28699701
Ge       0.75345721       3.90042006       6.88898830      -0.03962194      -0.00049397       0.28699701
Ge       5.06025580       1.91329295       3.45308391       0.03962194       0.00049397       0.28699701
Ge       2.15339930       0.99356355      -1.73513172       0.03962194      -0.00049397      -0.28699701
Ge      -2.15339930      -0.99356355       1.70077267      -0.03962194       0.00049397      -0.28699701
Ge       1.91329295       5.06025580       3.41872486       0.00049397       0.03962194      -0.28699701
Ge       3.90042006       0.75345721      -0.01717952      -0.00049397      -0.03962194      -0.28699701

