(written by ASE)

2 atoms
1 atom types

0.0      4.3133513652379376  xlo xhi
0.0      3.7354718577443444  ylo yhi
0.0      3.5218366420567153  zlo zhi
     2.1566756826189692      2.1566756826189692      1.2451572859147815  xy xz yz

Atoms # atomic

     1   1                       0                       0                       0
     2   1      2.1566756826189692      1.2451572859147813     0.88045916051417827
