(written by ASE)

8 atoms
1 atom types

0.0      5.5425625842204083  xlo xhi
0.0       5.225578117937447  ylo yhi
0.0       4.525483399593905  zlo zhi
    -1.8475208614068026     -1.8475208614068026     -2.6127890589687235  xy xz yz

Atoms # atomic

     1   1     0.37430772652101812     0.52935106334706328      0.9168629367577249
     2   1    -0.37430772652101812    -0.52935106334706328     -0.9168629367577249
     3   1     0.72459768184374795       2.612789058968723 -5.5627755019856505e-18
     4   1    -0.72459768184374795      -2.612789058968723  5.5627755019856505e-18
     5   1     -1.4732131348857842     0.24769240279023497      2.2627416997969521
     6   1      1.4732131348857842    -0.24769240279023497     -2.2627416997969521
     7   1      2.2218285879278206    -0.77704346613729824       1.345878763039227
     8   1     -2.2218285879278206     0.77704346613729824      -1.345878763039227
