(written by ASE)

2 atoms
1 atom types

0.0      3.6769552621700474  xlo xhi
0.0      3.1843366656181318  ylo yhi
0.0      3.0022213997860541  zlo zhi
     1.8384776310850235      1.8384776310850235       1.061445555206044  xy xz yz

Atoms # atomic

     1   1                       0                       0                       0
     2   1      1.8384776310850235       1.061445555206044     0.75055534994651374
