(written by ASE)

2 atoms
1 atom types

0.0      5.2999999999999972  xlo xhi
0.0      5.2999999999999972  ylo yhi
0.0      1.4646549999999994  zlo zhi
                      0      2.6499999999999986      2.6499999999999986  xy xz yz

Atoms # atomic

     1   1                       0     -1.3249999999999993     0.36616374999999973
     2   1                       0      1.3249999999999993    -0.36616374999999973
