(written by ASE)

2 atoms
1 atom types

0.0      4.9999999999999982  xlo xhi
0.0      4.9999999999999982  ylo yhi
0.0      1.3817499999999991  zlo zhi
                      0      2.4999999999999991      2.4999999999999991  xy xz yz

Atoms # atomic

     1   1                       0     -1.2499999999999996      0.3454374999999999
     2   1                       0      1.2499999999999996     -0.3454374999999999
