(written by ASE)

8 atoms
1 atom types

0.0      5.8023702053557384  xlo xhi
0.0      5.4705270922157636  ylo yhi
0.0      4.7376154339498679  zlo zhi
    -1.9341234017852462     -1.9341234017852462     -2.7352635461078822  xy xz yz

Atoms # atomic

     1   1     0.39185340120169088     0.55416439444145682     0.95984088691824332
     2   1    -0.39185340120169088    -0.55416439444145682    -0.95984088691824332
     3   1     0.75856319818017337      2.7352635461078818  3.6475880649972995e-16
     4   1    -0.75856319818017337     -2.7352635461078818 -3.6475880649972995e-16
     5   1      -1.542270000583555      0.2593029841710271       2.368807716974934
     6   1       1.542270000583555     -0.2593029841710271      -2.368807716974934
     7   1      2.3259768029869368    -0.81346737861248408      1.4089668300566904
     8   1     -2.3259768029869368     0.81346737861248408     -1.4089668300566904
