(written by ASE)

2 atoms
1 atom types

0.0      2.8499999999999996  xlo xhi
0.0      2.4681724007856496  ylo yhi
0.0      4.6540305112880382  zlo zhi
                 -1.425                       0                       0  xy xz yz

Atoms # atomic

     1   1                       0                       0                       0
     2   1  1.5728159515523044e-17      1.6454482671904329      2.3270152556440191
