(written by ASE)

2 atoms
1 atom types

0.0      4.6999999999999993  xlo xhi
0.0      4.6999999999999993  ylo yhi
0.0      1.2988450000000002  zlo zhi
                      0      2.3499999999999996      2.3499999999999996  xy xz yz

Atoms # atomic

     1   1                       0     -1.1749999999999998     0.32471124999999984
     2   1                       0      1.1749999999999998    -0.32471124999999984
