(written by ASE)

2 atoms
1 atom types

0.0      3.9972746340475527  xlo xhi
0.0       3.461741378988326  ylo yhi
0.0       3.263761071728954  zlo zhi
     1.9986373170237763      1.9986373170237763      1.1539137929961087  xy xz yz

Atoms # atomic

     1   1                       0                       0                       0
     2   1      1.9986373170237766      1.1539137929961087     0.81594026793223851
