LAMMPS (2 Aug 2023 - Update 3)
OMP_NUM_THREADS environment is not set. Defaulting to 1 thread. (src/comm.cpp:98)
  using 1 OpenMP thread(s) per MPI task
Reading data file ...
  orthogonal box = (0 0 0) to (5.653 5.653 5.653)
  1 by 1 by 3 MPI processor grid
  reading atoms ...
  8 atoms
  read_data CPU = 0.006 seconds
Reading sw potential file /scratch/phys/t30429_nume-dft-ml/04-Ruoyan/00-MLP/04-short_range/ilearn/ilearn/potentials/params/SW/Ge.sw with DATE: 2025-10-10
WARNING: No fixes with time integration, atoms won't move (src/verlet.cpp:60)
Neighbor list info ...
  update: every = 1 steps, delay = 0 steps, check = yes
  max neighbors/atom: 2000, page size: 100000
  master list distance cutoff = 5.9258
  ghost atom cutoff = 5.9258
  binsize = 2.9629, bins = 2 2 2
  1 neighbor lists, perpetual/occasional/extra = 1 0 0
  (1) pair sw, perpetual
      attributes: full, newton on
      pair build: full/bin/atomonly
      stencil: full/bin/3d
      bin: standard
WARNING: Proc sub-domain size < neighbor skin, could lead to lost atoms (src/domain.cpp:966)
Setting up Verlet run ...
  Unit style    : metal
  Current step  : 0
  Time step     : 0.001
Per MPI rank memory allocation (min/avg/max) = 2.973 | 2.973 | 2.973 Mbytes
   Step         PotEng         KinEng         TotEng    
         0  -25.279996      0             -25.279996    
         1  -25.279996      0             -25.279996    
Loop time of 0.000116062 on 3 procs for 1 steps with 8 atoms

Performance: 744.428 ns/day, 0.032 hours/ns, 8616.060 timesteps/s, 68.928 katom-step/s
30.4% CPU use with 3 MPI tasks x 1 OpenMP threads

MPI task timing breakdown:
Section |  min time  |  avg time  |  max time  |%varavg| %total
---------------------------------------------------------------
Pair    | 2.062e-06  | 2.6047e-06 | 3.597e-06  |   0.0 |  2.24
Neigh   | 0          | 0          | 0          |   0.0 |  0.00
Comm    | 8.2874e-05 | 8.3348e-05 | 8.3778e-05 |   0.0 | 71.81
Output  | 2.0403e-05 | 2.0572e-05 | 2.0815e-05 |   0.0 | 17.73
Modify  | 3.32e-07   | 4.4733e-07 | 5.23e-07   |   0.0 |  0.39
Other   |            | 9.09e-06   |            |       |  7.83

Nlocal:        2.66667 ave           4 max           2 min
Histogram: 2 0 0 0 0 0 0 0 0 1
Nghost:            204 ave         211 max         192 min
Histogram: 1 0 0 0 0 0 0 0 1 1
Neighs:              0 ave           0 max           0 min
Histogram: 3 0 0 0 0 0 0 0 0 0
FullNghs:      90.6667 ave         136 max          68 min
Histogram: 2 0 0 0 0 0 0 0 0 1

Total # of neighbors = 272
Ave neighs/atom = 34
Neighbor list builds = 0
Dangerous builds = 0
-25.2799959862507
Total wall time: 0:00:00
