LAMMPS (2 Aug 2023 - Update 3)
OMP_NUM_THREADS environment is not set. Defaulting to 1 thread. (src/comm.cpp:98)
  using 1 OpenMP thread(s) per MPI task
Reading data file ...
  triclinic box = (0 0 0) to (3.9972746 3.4617414 3.2637611) with tilt (1.9986373 1.9986373 1.1539138)
WARNING: Triclinic box skew is large. LAMMPS will run inefficiently. (src/domain.cpp:220)
  1 by 1 by 3 MPI processor grid
  reading atoms ...
  2 atoms
  read_data CPU = 0.002 seconds
Reading sw potential file /scratch/phys/t30429_nume-dft-ml/04-Ruoyan/00-MLP/04-short_range/ilearn/ilearn/potentials/params/SW/Ge.sw with DATE: 2025-10-10
WARNING: No fixes with time integration, atoms won't move (src/verlet.cpp:60)
Neighbor list info ...
  update: every = 1 steps, delay = 0 steps, check = yes
  max neighbors/atom: 2000, page size: 100000
  master list distance cutoff = 5.9258
  ghost atom cutoff = 5.9258
  binsize = 2.9629, bins = 3 2 2
  1 neighbor lists, perpetual/occasional/extra = 1 0 0
  (1) pair sw, perpetual
      attributes: full, newton on
      pair build: full/bin/atomonly
      stencil: full/bin/3d
      bin: standard
WARNING: Proc sub-domain size < neighbor skin, could lead to lost atoms (src/domain.cpp:966)
Setting up Verlet run ...
  Unit style    : metal
  Current step  : 0
  Time step     : 0.001
Per MPI rank memory allocation (min/avg/max) = 2.989 | 3.031 | 3.114 Mbytes
   Step         PotEng         KinEng         TotEng    
         0  -6.319999       0             -6.319999     
         1  -6.319999       0             -6.319999     
Loop time of 0.000133904 on 3 procs for 1 steps with 2 atoms

Performance: 645.237 ns/day, 0.037 hours/ns, 7468.018 timesteps/s, 14.936 katom-step/s
31.9% CPU use with 3 MPI tasks x 1 OpenMP threads

MPI task timing breakdown:
Section |  min time  |  avg time  |  max time  |%varavg| %total
---------------------------------------------------------------
Pair    | 2.22e-07   | 8.81e-07   | 2.117e-06  |   0.0 |  0.66
Neigh   | 0          | 0          | 0          |   0.0 |  0.00
Comm    | 0.00010679 | 0.00010889 | 0.00011001 |   0.0 | 81.32
Output  | 1.2564e-05 | 1.4772e-05 | 1.742e-05  |   0.0 | 11.03
Modify  | 3.91e-07   | 4.52e-07   | 5e-07      |   0.0 |  0.34
Other   |            | 8.905e-06  |            |       |  6.65

Nlocal:       0.666667 ave           2 max           0 min
Histogram: 2 0 0 0 0 0 0 0 0 1
Nghost:        163.333 ave         164 max         162 min
Histogram: 1 0 0 0 0 0 0 0 0 2
Neighs:              0 ave           0 max           0 min
Histogram: 3 0 0 0 0 0 0 0 0 0
FullNghs:      22.6667 ave          68 max           0 min
Histogram: 2 0 0 0 0 0 0 0 0 1

Total # of neighbors = 68
Ave neighs/atom = 34
Neighbor list builds = 0
Dangerous builds = 0
-6.31999899656266
Total wall time: 0:00:00
