LAMMPS (2 Aug 2023 - Update 3)
OMP_NUM_THREADS environment is not set. Defaulting to 1 thread. (src/comm.cpp:98)
  using 1 OpenMP thread(s) per MPI task
Reading data file ...
  triclinic box = (0 0 0) to (4.0008102 3.4648032 3.2666478) with tilt (2.0004051 2.0004051 1.1549344)
WARNING: Triclinic box skew is large. LAMMPS will run inefficiently. (src/domain.cpp:220)
  1 by 1 by 3 MPI processor grid
  reading atoms ...
  2 atoms
  read_data CPU = 0.010 seconds
WARNING: No fixes with time integration, atoms won't move (src/verlet.cpp:60)
Neighbor list info ...
  update: every = 1 steps, delay = 0 steps, check = yes
  max neighbors/atom: 2000, page size: 100000
  master list distance cutoff = 6.5
  ghost atom cutoff = 6.5
  binsize = 3.25, bins = 3 2 2
  2 neighbor lists, perpetual/occasional/extra = 2 0 0
  (1) pair meam, perpetual
      attributes: full, newton on
      pair build: full/bin/atomonly
      stencil: full/bin/3d
      bin: standard
  (2) pair meam, perpetual, half/full from (1)
      attributes: half, newton on
      pair build: halffull/newton
      stencil: none
      bin: none
WARNING: Proc sub-domain size < neighbor skin, could lead to lost atoms (src/domain.cpp:966)
Setting up Verlet run ...
  Unit style    : metal
  Current step  : 0
  Time step     : 0.001
Per MPI rank memory allocation (min/avg/max) = 8.516 | 8.558 | 8.642 Mbytes
   Step         PotEng         KinEng         TotEng    
         0  -7.7            0             -7.7          
         1  -7.7            0             -7.7          
Loop time of 0.000455303 on 3 procs for 1 steps with 2 atoms

Performance: 189.764 ns/day, 0.126 hours/ns, 2196.340 timesteps/s, 4.393 katom-step/s
66.1% CPU use with 3 MPI tasks x 1 OpenMP threads

MPI task timing breakdown:
Section |  min time  |  avg time  |  max time  |%varavg| %total
---------------------------------------------------------------
Pair    | 0.0003256  | 0.00033264 | 0.00033933 |   0.0 | 73.06
Neigh   | 0          | 0          | 0          |   0.0 |  0.00
Comm    | 9.621e-05  | 0.00010162 | 0.00010857 |   0.0 | 22.32
Output  | 9.817e-06  | 1.1176e-05 | 1.2463e-05 |   0.0 |  2.45
Modify  | 3.7e-07    | 4.1367e-07 | 4.9e-07    |   0.0 |  0.09
Other   |            | 9.452e-06  |            |       |  2.08

Nlocal:       0.666667 ave           2 max           0 min
Histogram: 2 0 0 0 0 0 0 0 0 1
Nghost:        171.667 ave         187 max         164 min
Histogram: 2 0 0 0 0 0 0 0 0 1
Neighs:        15.3333 ave          46 max           0 min
Histogram: 2 0 0 0 0 0 0 0 0 1
FullNghs:      30.6667 ave          92 max           0 min
Histogram: 2 0 0 0 0 0 0 0 0 1

Total # of neighbors = 92
Ave neighs/atom = 46
Neighbor list builds = 0
Dangerous builds = 0
-7.6999999968042
Total wall time: 0:00:00
