(written by ASE)

2 atoms
1 atom types

0.0      5.0999999999999979  xlo xhi
0.0      5.0999999999999979  ylo yhi
0.0      1.4093849999999994  zlo zhi
                      0      2.5499999999999989      2.5499999999999989  xy xz yz

Atoms # atomic

     1   1                       0     -1.2749999999999995     0.35234624999999975
     2   1                       0      1.2749999999999995    -0.35234624999999975
