(written by ASE)

4 atoms
1 atom types

0.0      3.7499999999999996  xlo xhi
0.0      3.2475952641916446  ylo yhi
0.0      6.1859999999999991  zlo zhi
                 -1.875                       0                       0  xy xz yz

Atoms # atomic

     1   1 -7.4500429886884642e-17      2.1650635094610964     0.38854265999999998
     2   1      1.8749999999999998      1.0825317547305484      3.4815426599999997
     3   1 -7.4500429886884642e-17      2.1650635094610964      2.7044573399999994
     4   1      1.8749999999999998      1.0825317547305484    -0.38854265999999998
