(written by ASE)

1 atoms
1 atom types

0.0      3.1466251762801347  xlo xhi
0.0       2.725057338846284  ylo yhi
0.0      2.5692086978938331  zlo zhi
     1.5733125881400674      1.5733125881400674     0.90835244628209466  xy xz yz

Atoms # atomic

     1   1                       0                       0                       0
