ITEM: TIMESTEP
0
ITEM: NUMBER OF ATOMS
64
ITEM: BOX BOUNDS xy xz yz pp pp pp
0.0000000000000000e+00 1.1316000000000001e+01 6.9290515895757251e-16
0.0000000000000000e+00 1.1316000000000003e+01 6.9290515895757251e-16
0.0000000000000000e+00 1.1316000000000001e+01 1.2563283746658272e-15
ITEM: ATOMS id type x y z fx fy fz
1 1      0.01000000      0.00000000      0.00000000     -0.12275283      0.00000000      0.00000000
9 1      0.00000000      2.82900000      2.82900000     -0.00024970     -0.00215148     -0.00215148
17 1      2.82900000      0.00000000      2.82900000      0.00246678      0.00213775      0.00236487
25 1      2.82900000      2.82900000      0.00000000      0.00246678      0.00236487      0.00213775
33 1      1.41450000      1.41450000      1.41450000      0.02628220      0.01723437      0.01723437
49 1      4.24350000      1.41450000      4.24350000     -0.00000000      0.00000000     -0.00000000
3 1      0.00000000      5.65800000      0.00000000     -0.00000000      0.00000000     -0.00000000
4 1      5.65800000      5.65800000      0.00000000      0.00000000     -0.00000000     -0.00000000
19 1      2.82900000      5.65800000      2.82900000      0.00000000      0.00000000      0.00000000
35 1      1.41450000      7.07250000      1.41450000     -0.00000000     -0.00000000     -0.00000000
41 1      1.41450000      4.24350000      4.24350000     -0.00000000     -0.00000000      0.00000000
51 1      4.24350000      7.07250000      4.24350000      0.00000000     -0.00000000     -0.00000000
57 1      4.24350000      4.24350000      1.41450000      0.00000000      0.00000000     -0.00000000
11 1      0.00000000      8.48700000      2.82900000     -0.00024403     -0.00211036      0.00211036
27 1      2.82900000      8.48700000      0.00000000      0.00246678     -0.00236487     -0.00213775
43 1      1.41450000      9.90150000      4.24350000     -0.00000000     -0.00000000      0.00000000
59 1      4.24350000      9.90150000      1.41450000      0.00000000     -0.00000000      0.00000000
5 1      0.00000000      0.00000000      5.65800000     -0.00000000     -0.00000000      0.00000000
6 1      5.65800000      0.00000000      5.65800000      0.00000000     -0.00000000     -0.00000000
13 1      0.00000000      2.82900000      8.48700000     -0.00024403      0.00211036     -0.00211036
21 1      2.82900000      0.00000000      8.48700000      0.00246678     -0.00213775     -0.00236487
29 1      2.82900000      2.82900000      5.65800000     -0.00000000      0.00000000      0.00000000
37 1      1.41450000      1.41450000      7.07250000     -0.00000000     -0.00000000     -0.00000000
53 1      4.24350000      1.41450000      9.90150000      0.00000000      0.00000000     -0.00000000
7 1      0.00000000      5.65800000      5.65800000     -0.00000000      0.00000000     -0.00000000
8 1      5.65800000      5.65800000      5.65800000      0.00000000      0.00000000     -0.00000000
23 1      2.82900000      5.65800000      8.48700000     -0.00000000      0.00000000      0.00000000
39 1      1.41450000      7.07250000      7.07250000     -0.00000000     -0.00000000     -0.00000000
45 1      1.41450000      4.24350000      9.90150000     -0.00000000      0.00000000     -0.00000000
55 1      4.24350000      7.07250000      9.90150000      0.00000000      0.00000000     -0.00000000
61 1      4.24350000      4.24350000      7.07250000      0.00000000     -0.00000000      0.00000000
15 1      0.00000000      8.48700000      8.48700000     -0.00024970      0.00215148      0.00215148
31 1      2.82900000      8.48700000      5.65800000     -0.00000000      0.00000000      0.00000000
47 1      1.41450000      9.90150000      9.90150000      0.02628220     -0.01723437     -0.01723437
63 1      4.24350000      9.90150000      7.07250000      0.00000000      0.00000000      0.00000000
2 1      5.65800000      0.00000000      0.00000000      0.00000000     -0.00000000     -0.00000000
10 1      5.65800000      2.82900000      2.82900000      0.00000000     -0.00000000     -0.00000000
18 1      8.48700000      0.00000000      2.82900000      0.00245829      0.00212402     -0.00232432
26 1      8.48700000      2.82900000      0.00000000      0.00245829     -0.00232432      0.00212402
34 1      7.07250000      1.41450000      1.41450000     -0.00000000      0.00000000      0.00000000
50 1      9.90150000      1.41450000      4.24350000     -0.00000000      0.00000000      0.00000000
20 1      8.48700000      5.65800000      2.82900000      0.00000000      0.00000000      0.00000000
36 1      7.07250000      7.07250000      1.41450000     -0.00000000     -0.00000000     -0.00000000
42 1      7.07250000      4.24350000      4.24350000     -0.00000000      0.00000000      0.00000000
52 1      9.90150000      7.07250000      4.24350000      0.00000000     -0.00000000      0.00000000
58 1      9.90150000      4.24350000      1.41450000      0.00000000      0.00000000      0.00000000
12 1      5.65800000      8.48700000      2.82900000     -0.00000000      0.00000000      0.00000000
28 1      8.48700000      8.48700000      0.00000000      0.00245829      0.00232432     -0.00212402
44 1      7.07250000      9.90150000      4.24350000     -0.00000000      0.00000000      0.00000000
60 1      9.90150000      9.90150000      1.41450000      0.02573780      0.01670998     -0.01670998
14 1      5.65800000      2.82900000      8.48700000     -0.00000000      0.00000000      0.00000000
22 1      8.48700000      0.00000000      8.48700000      0.00245829     -0.00212402      0.00232432
30 1      8.48700000      2.82900000      5.65800000      0.00000000      0.00000000     -0.00000000
38 1      7.07250000      1.41450000      7.07250000      0.00000000     -0.00000000     -0.00000000
54 1      9.90150000      1.41450000      9.90150000      0.02573780     -0.01670998      0.01670998
24 1      8.48700000      5.65800000      8.48700000      0.00000000      0.00000000     -0.00000000
40 1      7.07250000      7.07250000      7.07250000      0.00000000     -0.00000000     -0.00000000
46 1      7.07250000      4.24350000      9.90150000     -0.00000000      0.00000000      0.00000000
56 1      9.90150000      7.07250000      9.90150000      0.00000000     -0.00000000      0.00000000
62 1      9.90150000      4.24350000      7.07250000      0.00000000      0.00000000     -0.00000000
16 1      5.65800000      8.48700000      8.48700000     -0.00000000      0.00000000      0.00000000
32 1      8.48700000      8.48700000      5.65800000      0.00000000      0.00000000      0.00000000
48 1      7.07250000      9.90150000      9.90150000     -0.00000000     -0.00000000      0.00000000
64 1      9.90150000      9.90150000      7.07250000     -0.00000000      0.00000000     -0.00000000
