64   
1    

1    
  0.0100000000000000   0.0000000000000000   0.0000000000000000
  -0.1227528298   -0.0000000000   -0.0000000000
   0.0000000002    0.0000000000    0.0000000000
   0.0000000002    0.0000000000    0.0000000000
   0.0000000002    0.0000000000    0.0000000000
   0.0000000002    0.0000000000    0.0000000000
   0.0000000002    0.0000000000    0.0000000000
   0.0000000002    0.0000000000    0.0000000000
   0.0000000002    0.0000000000    0.0000000000
  -0.0002496998   -0.0021514800   -0.0021514800
   0.0000000002    0.0000000000    0.0000000000
  -0.0002440298   -0.0021103600    0.0021103600
   0.0000000002    0.0000000000    0.0000000000
  -0.0002440298    0.0021103600   -0.0021103600
   0.0000000002    0.0000000000    0.0000000000
  -0.0002496998    0.0021514800    0.0021514800
   0.0000000002    0.0000000000    0.0000000000
   0.0024667802    0.0021377500    0.0023648700
   0.0024582902    0.0021240200   -0.0023243200
   0.0000000002    0.0000000000    0.0000000000
   0.0000000002    0.0000000000    0.0000000000
   0.0024667802   -0.0021377500   -0.0023648700
   0.0024582902   -0.0021240200    0.0023243200
   0.0000000002    0.0000000000    0.0000000000
   0.0000000002    0.0000000000    0.0000000000
   0.0024667802    0.0023648700    0.0021377500
   0.0024582902   -0.0023243200    0.0021240200
   0.0024667802   -0.0023648700   -0.0021377500
   0.0024582902    0.0023243200   -0.0021240200
   0.0000000002    0.0000000000    0.0000000000
   0.0000000002    0.0000000000    0.0000000000
   0.0000000002    0.0000000000    0.0000000000
   0.0000000002    0.0000000000    0.0000000000
   0.0262822002    0.0172343700    0.0172343700
   0.0000000002    0.0000000000    0.0000000000
   0.0000000002    0.0000000000    0.0000000000
   0.0000000002    0.0000000000    0.0000000000
   0.0000000002    0.0000000000    0.0000000000
   0.0000000002    0.0000000000    0.0000000000
   0.0000000002    0.0000000000    0.0000000000
   0.0000000002    0.0000000000    0.0000000000
   0.0000000002    0.0000000000    0.0000000000
   0.0000000002    0.0000000000    0.0000000000
   0.0000000002    0.0000000000    0.0000000000
   0.0000000002    0.0000000000    0.0000000000
   0.0000000002    0.0000000000    0.0000000000
   0.0000000002    0.0000000000    0.0000000000
   0.0262822002   -0.0172343700   -0.0172343700
   0.0000000002    0.0000000000    0.0000000000
   0.0000000002    0.0000000000    0.0000000000
   0.0000000002    0.0000000000    0.0000000000
   0.0000000002    0.0000000000    0.0000000000
   0.0000000002    0.0000000000    0.0000000000
   0.0000000002    0.0000000000    0.0000000000
   0.0257378002   -0.0167099800    0.0167099800
   0.0000000002    0.0000000000    0.0000000000
   0.0000000002    0.0000000000    0.0000000000
   0.0000000002    0.0000000000    0.0000000000
   0.0000000002    0.0000000000    0.0000000000
   0.0000000002    0.0000000000    0.0000000000
   0.0257378002    0.0167099800   -0.0167099800
   0.0000000002    0.0000000000    0.0000000000
   0.0000000002    0.0000000000    0.0000000000
   0.0000000002    0.0000000000    0.0000000000
   0.0000000002    0.0000000000    0.0000000000
