phonopy:
  version: "2.40.0"
  calculator: lammps
  frequency_unit_conversion_factor: 15.633302
  symmetry_tolerance: 1.00000e-05

space_group:
  type: "Fd-3m"
  number: 227
  Hall_symbol: "F 4d 2 3 -1d"

primitive_matrix:
- [  0.000000000000000,  0.500000000000000,  0.500000000000000 ]
- [  0.500000000000000,  0.000000000000000,  0.500000000000000 ]
- [  0.500000000000000,  0.500000000000000,  0.000000000000000 ]

supercell_matrix:
- [   2,   0,   0 ]
- [   0,   2,   0 ]
- [   0,   0,   2 ]

primitive_cell:
  lattice:
  - [     0.000000000000000,     2.829000000000000,     2.829000000000000 ] # a
  - [     2.829000000000000,     0.000000000000000,     2.829000000000000 ] # b
  - [     2.829000000000000,     2.829000000000000,     0.000000000000000 ] # c
  points:
  - symbol: Ge # 1
    coordinates: [  0.000000000000000,  0.000000000000000,  0.000000000000000 ]
    mass: 72.640000
  - symbol: Ge # 2
    coordinates: [  0.250000000000000,  0.250000000000000,  0.250000000000000 ]
    mass: 72.640000
  reciprocal_lattice: # without 2pi
  - [    -0.176740897843761,     0.176740897843761,     0.176740897843761 ] # a*
  - [     0.176740897843761,    -0.176740897843761,     0.176740897843761 ] # b*
  - [     0.176740897843761,     0.176740897843761,    -0.176740897843761 ] # c*

unit_cell:
  lattice:
  - [     5.658000000000000,     0.000000000000000,     0.000000000000000 ] # a
  - [     0.000000000000000,     5.658000000000000,     0.000000000000000 ] # b
  - [     0.000000000000000,     0.000000000000000,     5.658000000000000 ] # c
  points:
  - symbol: Ge # 1
    coordinates: [  0.000000000000000,  0.000000000000000,  0.000000000000000 ]
    mass: 72.640000
    reduced_to: 1
  - symbol: Ge # 2
    coordinates: [  0.000000000000000,  0.500000000000000,  0.500000000000000 ]
    mass: 72.640000
    reduced_to: 1
  - symbol: Ge # 3
    coordinates: [  0.500000000000000,  0.000000000000000,  0.500000000000000 ]
    mass: 72.640000
    reduced_to: 1
  - symbol: Ge # 4
    coordinates: [  0.500000000000000,  0.500000000000000,  0.000000000000000 ]
    mass: 72.640000
    reduced_to: 1
  - symbol: Ge # 5
    coordinates: [  0.250000000000000,  0.250000000000000,  0.250000000000000 ]
    mass: 72.640000
    reduced_to: 5
  - symbol: Ge # 6
    coordinates: [  0.250000000000000,  0.750000000000000,  0.750000000000000 ]
    mass: 72.640000
    reduced_to: 5
  - symbol: Ge # 7
    coordinates: [  0.750000000000000,  0.250000000000000,  0.750000000000000 ]
    mass: 72.640000
    reduced_to: 5
  - symbol: Ge # 8
    coordinates: [  0.750000000000000,  0.750000000000000,  0.250000000000000 ]
    mass: 72.640000
    reduced_to: 5

supercell:
  lattice:
  - [    11.316000000000001,     0.000000000000000,     0.000000000000000 ] # a
  - [     0.000000000000000,    11.316000000000001,     0.000000000000000 ] # b
  - [     0.000000000000000,     0.000000000000000,    11.316000000000001 ] # c
  points:
  - symbol: Ge # 1
    coordinates: [  0.000000000000000,  0.000000000000000,  0.000000000000000 ]
    mass: 72.640000
    reduced_to: 1
  - symbol: Ge # 2
    coordinates: [  0.500000000000000,  0.000000000000000,  0.000000000000000 ]
    mass: 72.640000
    reduced_to: 1
  - symbol: Ge # 3
    coordinates: [  0.000000000000000,  0.500000000000000,  0.000000000000000 ]
    mass: 72.640000
    reduced_to: 1
  - symbol: Ge # 4
    coordinates: [  0.500000000000000,  0.500000000000000,  0.000000000000000 ]
    mass: 72.640000
    reduced_to: 1
  - symbol: Ge # 5
    coordinates: [  0.000000000000000,  0.000000000000000,  0.500000000000000 ]
    mass: 72.640000
    reduced_to: 1
  - symbol: Ge # 6
    coordinates: [  0.500000000000000,  0.000000000000000,  0.500000000000000 ]
    mass: 72.640000
    reduced_to: 1
  - symbol: Ge # 7
    coordinates: [  0.000000000000000,  0.500000000000000,  0.500000000000000 ]
    mass: 72.640000
    reduced_to: 1
  - symbol: Ge # 8
    coordinates: [  0.500000000000000,  0.500000000000000,  0.500000000000000 ]
    mass: 72.640000
    reduced_to: 1
  - symbol: Ge # 9
    coordinates: [  0.000000000000000,  0.250000000000000,  0.250000000000000 ]
    mass: 72.640000
    reduced_to: 1
  - symbol: Ge # 10
    coordinates: [  0.500000000000000,  0.250000000000000,  0.250000000000000 ]
    mass: 72.640000
    reduced_to: 1
  - symbol: Ge # 11
    coordinates: [  0.000000000000000,  0.750000000000000,  0.250000000000000 ]
    mass: 72.640000
    reduced_to: 1
  - symbol: Ge # 12
    coordinates: [  0.500000000000000,  0.750000000000000,  0.250000000000000 ]
    mass: 72.640000
    reduced_to: 1
  - symbol: Ge # 13
    coordinates: [  0.000000000000000,  0.250000000000000,  0.750000000000000 ]
    mass: 72.640000
    reduced_to: 1
  - symbol: Ge # 14
    coordinates: [  0.500000000000000,  0.250000000000000,  0.750000000000000 ]
    mass: 72.640000
    reduced_to: 1
  - symbol: Ge # 15
    coordinates: [  0.000000000000000,  0.750000000000000,  0.750000000000000 ]
    mass: 72.640000
    reduced_to: 1
  - symbol: Ge # 16
    coordinates: [  0.500000000000000,  0.750000000000000,  0.750000000000000 ]
    mass: 72.640000
    reduced_to: 1
  - symbol: Ge # 17
    coordinates: [  0.250000000000000,  0.000000000000000,  0.250000000000000 ]
    mass: 72.640000
    reduced_to: 1
  - symbol: Ge # 18
    coordinates: [  0.750000000000000,  0.000000000000000,  0.250000000000000 ]
    mass: 72.640000
    reduced_to: 1
  - symbol: Ge # 19
    coordinates: [  0.250000000000000,  0.500000000000000,  0.250000000000000 ]
    mass: 72.640000
    reduced_to: 1
  - symbol: Ge # 20
    coordinates: [  0.750000000000000,  0.500000000000000,  0.250000000000000 ]
    mass: 72.640000
    reduced_to: 1
  - symbol: Ge # 21
    coordinates: [  0.250000000000000,  0.000000000000000,  0.750000000000000 ]
    mass: 72.640000
    reduced_to: 1
  - symbol: Ge # 22
    coordinates: [  0.750000000000000,  0.000000000000000,  0.750000000000000 ]
    mass: 72.640000
    reduced_to: 1
  - symbol: Ge # 23
    coordinates: [  0.250000000000000,  0.500000000000000,  0.750000000000000 ]
    mass: 72.640000
    reduced_to: 1
  - symbol: Ge # 24
    coordinates: [  0.750000000000000,  0.500000000000000,  0.750000000000000 ]
    mass: 72.640000
    reduced_to: 1
  - symbol: Ge # 25
    coordinates: [  0.250000000000000,  0.250000000000000,  0.000000000000000 ]
    mass: 72.640000
    reduced_to: 1
  - symbol: Ge # 26
    coordinates: [  0.750000000000000,  0.250000000000000,  0.000000000000000 ]
    mass: 72.640000
    reduced_to: 1
  - symbol: Ge # 27
    coordinates: [  0.250000000000000,  0.750000000000000,  0.000000000000000 ]
    mass: 72.640000
    reduced_to: 1
  - symbol: Ge # 28
    coordinates: [  0.750000000000000,  0.750000000000000,  0.000000000000000 ]
    mass: 72.640000
    reduced_to: 1
  - symbol: Ge # 29
    coordinates: [  0.250000000000000,  0.250000000000000,  0.500000000000000 ]
    mass: 72.640000
    reduced_to: 1
  - symbol: Ge # 30
    coordinates: [  0.750000000000000,  0.250000000000000,  0.500000000000000 ]
    mass: 72.640000
    reduced_to: 1
  - symbol: Ge # 31
    coordinates: [  0.250000000000000,  0.750000000000000,  0.500000000000000 ]
    mass: 72.640000
    reduced_to: 1
  - symbol: Ge # 32
    coordinates: [  0.750000000000000,  0.750000000000000,  0.500000000000000 ]
    mass: 72.640000
    reduced_to: 1
  - symbol: Ge # 33
    coordinates: [  0.125000000000000,  0.125000000000000,  0.125000000000000 ]
    mass: 72.640000
    reduced_to: 33
  - symbol: Ge # 34
    coordinates: [  0.625000000000000,  0.125000000000000,  0.125000000000000 ]
    mass: 72.640000
    reduced_to: 33
  - symbol: Ge # 35
    coordinates: [  0.125000000000000,  0.625000000000000,  0.125000000000000 ]
    mass: 72.640000
    reduced_to: 33
  - symbol: Ge # 36
    coordinates: [  0.625000000000000,  0.625000000000000,  0.125000000000000 ]
    mass: 72.640000
    reduced_to: 33
  - symbol: Ge # 37
    coordinates: [  0.125000000000000,  0.125000000000000,  0.625000000000000 ]
    mass: 72.640000
    reduced_to: 33
  - symbol: Ge # 38
    coordinates: [  0.625000000000000,  0.125000000000000,  0.625000000000000 ]
    mass: 72.640000
    reduced_to: 33
  - symbol: Ge # 39
    coordinates: [  0.125000000000000,  0.625000000000000,  0.625000000000000 ]
    mass: 72.640000
    reduced_to: 33
  - symbol: Ge # 40
    coordinates: [  0.625000000000000,  0.625000000000000,  0.625000000000000 ]
    mass: 72.640000
    reduced_to: 33
  - symbol: Ge # 41
    coordinates: [  0.125000000000000,  0.375000000000000,  0.375000000000000 ]
    mass: 72.640000
    reduced_to: 33
  - symbol: Ge # 42
    coordinates: [  0.625000000000000,  0.375000000000000,  0.375000000000000 ]
    mass: 72.640000
    reduced_to: 33
  - symbol: Ge # 43
    coordinates: [  0.125000000000000,  0.875000000000000,  0.375000000000000 ]
    mass: 72.640000
    reduced_to: 33
  - symbol: Ge # 44
    coordinates: [  0.625000000000000,  0.875000000000000,  0.375000000000000 ]
    mass: 72.640000
    reduced_to: 33
  - symbol: Ge # 45
    coordinates: [  0.125000000000000,  0.375000000000000,  0.875000000000000 ]
    mass: 72.640000
    reduced_to: 33
  - symbol: Ge # 46
    coordinates: [  0.625000000000000,  0.375000000000000,  0.875000000000000 ]
    mass: 72.640000
    reduced_to: 33
  - symbol: Ge # 47
    coordinates: [  0.125000000000000,  0.875000000000000,  0.875000000000000 ]
    mass: 72.640000
    reduced_to: 33
  - symbol: Ge # 48
    coordinates: [  0.625000000000000,  0.875000000000000,  0.875000000000000 ]
    mass: 72.640000
    reduced_to: 33
  - symbol: Ge # 49
    coordinates: [  0.375000000000000,  0.125000000000000,  0.375000000000000 ]
    mass: 72.640000
    reduced_to: 33
  - symbol: Ge # 50
    coordinates: [  0.875000000000000,  0.125000000000000,  0.375000000000000 ]
    mass: 72.640000
    reduced_to: 33
  - symbol: Ge # 51
    coordinates: [  0.375000000000000,  0.625000000000000,  0.375000000000000 ]
    mass: 72.640000
    reduced_to: 33
  - symbol: Ge # 52
    coordinates: [  0.875000000000000,  0.625000000000000,  0.375000000000000 ]
    mass: 72.640000
    reduced_to: 33
  - symbol: Ge # 53
    coordinates: [  0.375000000000000,  0.125000000000000,  0.875000000000000 ]
    mass: 72.640000
    reduced_to: 33
  - symbol: Ge # 54
    coordinates: [  0.875000000000000,  0.125000000000000,  0.875000000000000 ]
    mass: 72.640000
    reduced_to: 33
  - symbol: Ge # 55
    coordinates: [  0.375000000000000,  0.625000000000000,  0.875000000000000 ]
    mass: 72.640000
    reduced_to: 33
  - symbol: Ge # 56
    coordinates: [  0.875000000000000,  0.625000000000000,  0.875000000000000 ]
    mass: 72.640000
    reduced_to: 33
  - symbol: Ge # 57
    coordinates: [  0.375000000000000,  0.375000000000000,  0.125000000000000 ]
    mass: 72.640000
    reduced_to: 33
  - symbol: Ge # 58
    coordinates: [  0.875000000000000,  0.375000000000000,  0.125000000000000 ]
    mass: 72.640000
    reduced_to: 33
  - symbol: Ge # 59
    coordinates: [  0.375000000000000,  0.875000000000000,  0.125000000000000 ]
    mass: 72.640000
    reduced_to: 33
  - symbol: Ge # 60
    coordinates: [  0.875000000000000,  0.875000000000000,  0.125000000000000 ]
    mass: 72.640000
    reduced_to: 33
  - symbol: Ge # 61
    coordinates: [  0.375000000000000,  0.375000000000000,  0.625000000000000 ]
    mass: 72.640000
    reduced_to: 33
  - symbol: Ge # 62
    coordinates: [  0.875000000000000,  0.375000000000000,  0.625000000000000 ]
    mass: 72.640000
    reduced_to: 33
  - symbol: Ge # 63
    coordinates: [  0.375000000000000,  0.875000000000000,  0.625000000000000 ]
    mass: 72.640000
    reduced_to: 33
  - symbol: Ge # 64
    coordinates: [  0.875000000000000,  0.875000000000000,  0.625000000000000 ]
    mass: 72.640000
    reduced_to: 33

displacements:
- atom:    1
  displacement:
    [   0.0100000000000000,  0.0000000000000000,  0.0000000000000000 ]
