#

64 atoms
1 atom types

0.0 11.316 xlo xhi
0.0 11.316 ylo yhi
0.0 11.316 zlo zhi

6.929051589575725e-16 6.929051589575725e-16 1.2563283746658272e-15 xy xz yz


Atom Type Labels

1 Ge


Atoms

1 Ge 0.01 0.0 0.0
2 Ge 5.658 0.0 0.0
3 Ge 3.4645257947878626e-16 5.658 0.0
4 Ge 5.658 5.658 0.0
5 Ge 3.4645257947878626e-16 6.281641873329136e-16 5.658
6 Ge 5.658 6.281641873329136e-16 5.658
7 Ge 6.929051589575725e-16 5.658000000000001 5.658
8 Ge 5.658 5.658000000000001 5.658
9 Ge 3.4645257947878626e-16 2.8290000000000006 2.829
10 Ge 5.658 2.8290000000000006 2.829
11 Ge 6.929051589575725e-16 8.487 2.829
12 Ge 5.658000000000001 8.487 2.829
13 Ge 6.929051589575725e-16 2.829000000000001 8.487
14 Ge 5.658000000000001 2.829000000000001 8.487
15 Ge 1.0393577384363588e-15 8.487000000000002 8.487
16 Ge 5.658000000000002 8.487000000000002 8.487
17 Ge 2.829 3.140820936664568e-16 2.829
18 Ge 8.487 3.140820936664568e-16 2.829
19 Ge 2.8290000000000006 5.658 2.829
20 Ge 8.487 5.658 2.829
21 Ge 2.8290000000000006 9.422462809993704e-16 8.487
22 Ge 8.487 9.422462809993704e-16 8.487
23 Ge 2.829000000000001 5.658000000000001 8.487
24 Ge 8.487 5.658000000000001 8.487
25 Ge 2.829 2.829 0.0
26 Ge 8.487 2.829 0.0
27 Ge 2.8290000000000006 8.487 0.0
28 Ge 8.487 8.487 0.0
29 Ge 2.8290000000000006 2.8290000000000006 5.658
30 Ge 8.487 2.8290000000000006 5.658
31 Ge 2.829000000000001 8.487 5.658
32 Ge 8.487 8.487 5.658
33 Ge 1.4145 1.4145000000000003 1.4145
34 Ge 7.072500000000001 1.4145000000000003 1.4145
35 Ge 1.4145000000000005 7.072500000000001 1.4145
36 Ge 7.072500000000001 7.072500000000001 1.4145
37 Ge 1.4145000000000005 1.414500000000001 7.072500000000001
38 Ge 7.072500000000001 1.414500000000001 7.072500000000001
39 Ge 1.414500000000001 7.072500000000002 7.072500000000001
40 Ge 7.072500000000001 7.072500000000002 7.072500000000001
41 Ge 1.4145000000000005 4.243500000000001 4.2435
42 Ge 7.072500000000001 4.243500000000001 4.2435
43 Ge 1.414500000000001 9.9015 4.2435
44 Ge 7.072500000000002 9.9015 4.2435
45 Ge 1.414500000000001 4.243500000000001 9.9015
46 Ge 7.072500000000002 4.243500000000001 9.9015
47 Ge 1.4145000000000014 9.901500000000002 9.9015
48 Ge 7.0725000000000025 9.901500000000002 9.9015
49 Ge 4.2435 1.4145000000000005 4.2435
50 Ge 9.9015 1.4145000000000005 4.2435
51 Ge 4.2435 7.072500000000002 4.2435
52 Ge 9.9015 7.072500000000002 4.2435
53 Ge 4.243500000000001 1.4145000000000012 9.9015
54 Ge 9.9015 1.4145000000000012 9.9015
55 Ge 4.243500000000001 7.072500000000002 9.9015
56 Ge 9.9015 7.072500000000002 9.9015
57 Ge 4.2435 4.2435 1.4145
58 Ge 9.9015 4.2435 1.4145
59 Ge 4.243500000000001 9.9015 1.4145
60 Ge 9.9015 9.9015 1.4145
61 Ge 4.2435 4.243500000000001 7.072500000000001
62 Ge 9.9015 4.243500000000001 7.072500000000001
63 Ge 4.243500000000001 9.9015 7.072500000000001
64 Ge 9.9015 9.9015 7.072500000000001