#

8 atoms
1 atom types

0.0 5.658 xlo xhi
0.0 5.658 ylo yhi
0.0 5.658 zlo zhi

3.4645257947878626e-16 3.4645257947878626e-16 6.281641873329136e-16 xy xz yz


Atom Type Labels

1 Ge


Atoms

1 Ge 0.0 0.0 0.0
2 Ge 3.4645257947878626e-16 2.8290000000000006 2.829
3 Ge 2.829 3.140820936664568e-16 2.829
4 Ge 2.829 2.829 0.0
5 Ge 1.4145 1.4145000000000003 1.4145
6 Ge 1.4145000000000005 4.243500000000001 4.2435
7 Ge 4.2435 1.4145000000000005 4.2435
8 Ge 4.2435 4.2435 1.4145