(written by ASE)

2 atoms
1 atom types

0.0      4.5254833995939014  xlo xhi
0.0      3.9191835884530826  ylo yhi
0.0      3.6950417228136025  zlo zhi
     2.2627416997969507      2.2627416997969507      1.3063945294843609  xy xz yz

Atoms # atomic

     1   1                       0                       0                       0
     2   1      2.2627416997969503      1.3063945294843611     0.92376043070340053
