(written by ASE)

8 atoms
1 atom types

0.0      5.8889727457341818  xlo xhi
0.0      5.5521767503085364  ylo yhi
0.0      4.8083261120685226  zlo zhi
    -1.9629909152447274     -1.9629909152447274     -2.7760883751542678  xy xz yz

Atoms # atomic

     1   1     0.39770195942858172     0.56243550480625459     0.97416687030508253
     2   1    -0.39770195942858172    -0.56243550480625459    -0.97416687030508253
     3   1     0.76988503695898203      2.7760883751542678 -1.5603439551168145e-16
     4   1    -0.76988503695898203     -2.7760883751542678  1.5603439551168145e-16
     5   1     -1.5652889558161454     0.26317317796462453      2.4041630560342613
     6   1      1.5652889558161454    -0.26317317796462453     -2.4041630560342613
     7   1      2.3606928746733087    -0.82560868277087929      1.4299961857291785
     8   1     -2.3606928746733087     0.82560868277087929     -1.4299961857291785
