(written by ASE)

2 atoms
1 atom types

0.0      5.6999999999999957  xlo xhi
0.0      5.6999999999999957  ylo yhi
0.0      1.5751949999999983  zlo zhi
                      0      2.8499999999999979      2.8499999999999979  xy xz yz

Atoms # atomic

     1   1                       0     -1.4249999999999989     0.39379874999999981
     2   1                       0      1.4249999999999989    -0.39379874999999981
