(written by ASE)

2 atoms
1 atom types

0.0      4.1012193308819747  xlo xhi
0.0      3.5517601270356072  ylo yhi
0.0      3.3486315612998285  zlo zhi
     2.0506096654409869      2.0506096654409869      1.1839200423452025  xy xz yz

Atoms # atomic

     1   1                       0                       0                       0
     2   1      2.0506096654409869      1.1839200423452025     0.83715789032495724
