(written by ASE)

4 atoms
1 atom types

0.0      4.0499999999999989  xlo xhi
0.0      3.5074028853269761  ylo yhi
0.0      6.6808799999999984  zlo zhi
    -2.0249999999999981                       0                       0  xy xz yz

Atoms # atomic

     1   1 -8.1826220706397016e-17      2.3382685902179832     0.41962607279999992
     2   1      2.0249999999999995      1.1691342951089907      3.7600660727999995
     3   1 -8.1826220706397016e-17      2.3382685902179832      2.9208139271999989
     4   1      2.0249999999999995      1.1691342951089907    -0.41962607279999992
