(written by ASE)

2 atoms
1 atom types

0.0      2.9999999999999991  xlo xhi
0.0      2.5980762113533151  ylo yhi
0.0      4.8989794855663549  zlo zhi
    -1.4999999999999996                       0                       0  xy xz yz

Atoms # atomic

     1   1                       0                       0                       0
     2   1  1.8503717077085926e-17      1.7320508075688767      2.4494897427831774
