(written by ASE)

1 atoms
1 atom types

0.0      2.6413774815425377  xlo xhi
0.0      2.4903145718295643  ylo yhi
0.0      2.1566756826189701  zlo zhi
   -0.88045916051417916    -0.88045916051417916     -1.2451572859147819  xy xz yz

Atoms # atomic

     1   1                       0                       0                       0
