(written by ASE)

4 atoms
1 atom types

0.0      3.6999999999999993  xlo xhi
0.0      3.2042939940024229  ylo yhi
0.0      6.1035199999999996  zlo zhi
    -1.8499999999999996                       0                       0  xy xz yz

Atoms # atomic

     1   1  1.2480343126084763e-16      2.1361959960016148     0.38336209119999998
     2   1      1.8500000000000001      1.0680979980008074      3.4351220911999998
     3   1  1.2480343126084763e-16      2.1361959960016148      2.6683979087999998
     4   1      1.8500000000000001      1.0680979980008074    -0.38336209119999998
