(written by ASE)

8 atoms
1 atom types

0.0      6.2353829072479554  xlo xhi
0.0       5.878775382679625  ylo yhi
0.0      5.0911688245431392  zlo zhi
    -2.0784609690826521     -2.0784609690826521     -2.9393876913398129  xy xz yz

Atoms # atomic

     1   1     0.42109619233614537     0.59551994626544613      1.0314708038524405
     2   1    -0.42109619233614537    -0.59551994626544613     -1.0314708038524405
     3   1     0.81517239207421621      2.9393876913398129  3.6331501737374209e-16
     4   1    -0.81517239207421621     -2.9393876913398129 -3.6331501737374209e-16
     5   1      -1.657364776746507     0.27865395313901414      2.5455844122715705
     6   1       1.657364776746507    -0.27865395313901414     -2.5455844122715705
     7   1      2.4995571614187977    -0.87417389940446033        1.51411360841913
     8   1     -2.4995571614187977     0.87417389940446033       -1.51411360841913
