(written by ASE)

2 atoms
1 atom types

0.0       3.747665940288702  xlo xhi
0.0      3.2455739091877112  ylo yhi
0.0      3.0599564267050168  zlo zhi
     1.8738329701443508      1.8738329701443508       1.081857969729237  xy xz yz

Atoms # atomic

     1   1                       0                       0                       0
     2   1      1.8738329701443508       1.081857969729237     0.76498910667625419
