(written by ASE)

2 atoms
1 atom types

0.0      3.1499999999999986  xlo xhi
0.0      2.7279800219209802  ylo yhi
0.0      5.1439284598446715  zlo zhi
    -1.5749999999999993                       0                       0  xy xz yz

Atoms # atomic

     1   1                       0                       0                       0
     2   1 -8.9743027823866847e-17      1.8186533479473201      2.5719642299223358
