(written by ASE)

1 atoms
1 atom types

0.0      2.7712812921102028  xlo xhi
0.0      2.6127890589687226  ylo yhi
0.0      2.2627416997969516  zlo zhi
   -0.92376043070340108    -0.92376043070340108     -1.3063945294843613  xy xz yz

Atoms # atomic

     1   1                       0                       0                       0
