(written by ASE)

4 atoms
1 atom types

0.0       3.899999999999999  xlo xhi
0.0      3.3774990747593101  ylo yhi
0.0      6.4334399999999983  zlo zhi
    -1.9499999999999993                       0                       0  xy xz yz

Atoms # atomic

     1   1  -7.358189257841229e-17      2.2516660498395398     0.40408436639999989
     2   1      1.9499999999999995      1.1258330249197699      3.6208043663999994
     3   1  -7.358189257841229e-17      2.2516660498395398      2.8126356335999989
     4   1      1.9499999999999995      1.1258330249197699    -0.40408436639999989
