(written by ASE)

2 atoms
1 atom types

0.0      4.2426406871192839  xlo xhi
0.0      3.6742346141747655  ylo yhi
0.0      3.4641016151377531  zlo zhi
     2.1213203435596415      2.1213203435596415      1.2247448713915889  xy xz yz

Atoms # atomic

     1   1                       0                       0                       0
     2   1      2.1213203435596415      1.2247448713915887     0.86602540378443804
