(written by ASE)

1 atoms
1 atom types

0.0      3.2042939940024207  xlo xhi
0.0      3.0210373494325844  ylo yhi
0.0      2.6162950903902242  zlo zhi
     -1.068097998000807      -1.068097998000807     -1.5105186747162922  xy xz yz

Atoms # atomic

     1   1                       0                       0                       0
