(written by ASE)

2 atoms
1 atom types

0.0      3.8890872965260108  xlo xhi
0.0      3.3680483963268695  ylo yhi
0.0      3.1754264805429413  zlo zhi
     1.9445436482630052      1.9445436482630052      1.1226827987756232  xy xz yz

Atoms # atomic

     1   1                       0                       0                       0
     2   1      1.9445436482630052      1.1226827987756232     0.79385662013573555
