(written by ASE)

2 atoms
1 atom types

0.0      3.2499999999999982  xlo xhi
0.0      2.8145825622994241  ylo yhi
0.0      5.3072277760302162  zlo zhi
    -1.6249999999999993                       0                       0  xy xz yz

Atoms # atomic

     1   1                       0                       0                       0
     2   1 -8.7892656116158259e-17      1.8763883748662826      2.6536138880151081
