(written by ASE)

2 atoms
1 atom types

0.0      5.1999999999999975  xlo xhi
0.0      5.1999999999999975  ylo yhi
0.0      1.4370199999999991  zlo zhi
                      0      2.5999999999999988      2.5999999999999988  xy xz yz

Atoms # atomic

     1   1                       0     -1.2999999999999994     0.35925499999999988
     2   1                       0      1.2999999999999994    -0.35925499999999988
