(written by ASE)

1 atoms
1 atom types

0.0      2.9877876430563122  xlo xhi
0.0      2.8169132042006537  ylo yhi
0.0      2.4395183950935881  zlo zhi
   -0.99592921435210391    -0.99592921435210391     -1.4084566021003266  xy xz yz

Atoms # atomic

     1   1                       0                       0                       0
