2
Lattice="-0.2236246525317863 2.892324742684328 3.1115971326246123 3.0035682424895995 -0.21075512220516565 2.8273248834583224 3.1598536417253023 2.9367812817814127 -0.19012863135345331" Properties=species:S:1:pos:R:3:forces:R:3 virial="-2.826604803263285 0.5704821651728961 1.747162389902783 0.5704821651728961 -2.104147177953134 0.5098278902078424 1.747162389902783 0.5098278902078424 -2.15405658173082" config_type=distorted_bulk sub_type=target energy=-8.57513748 stress="0.04802379851952961 -0.00969244817231576 -0.029684154819493422 -0.00969244817231576 0.03574929895144804 -0.008661936699007911 -0.029684154819493422 -0.008661936699007911 0.03659725588850635" free_energy=-8.57530979 pbc="T T T"
Ge       0.00000000       0.00000000       0.00000000      -0.23495418      -0.32956900      -0.21461432
Ge       1.48494931       1.40458773       1.43719835       0.23495418       0.32956900       0.21461432
2
Lattice="-0.025660196723249474 3.141048047560191 2.8381860518891044 2.789722344969957 -0.06893886811817501 2.6552582620384007 2.8654543087174353 2.8015882133359393 0.11654779866439835" Properties=species:S:1:pos:R:3:forces:R:3 virial="1.3390789294861363 1.2227296170864559 0.37547984958785774 1.2227296170864559 0.034235433787241615 -2.1851965433490386 0.37547984958785774 -2.1851965433490386 2.0059453748486322" config_type=distorted_bulk sub_type=base energy=-8.80145964 stress="-0.029230197864587394 -0.02669045704127653 -0.008196193708932693 -0.02669045704127653 -0.0007473110669921967 0.04769974788537371 -0.008196193708932693 0.04769974788537371 -0.04378694856686303" free_energy=-8.8015569 pbc="T T T"
Ge       0.00000000       0.00000000       0.00000000       0.79946553      -0.00323417      -0.47293691
Ge       1.40737911       1.46842435       1.40249803      -0.79946553       0.00323417       0.47293691
2
Lattice="-0.12106998148721256 2.860425562436193 3.018641999940844 2.8845106122038047 0.14216882521300053 2.857802522869743 2.961873429744778 2.8914214825523152 -0.040762754487818055" Properties=species:S:1:pos:R:3:forces:R:3 virial="-0.8424606537504821 -0.5645415025471433 1.35301561977923 -0.5645415025471433 0.2056024785863718 -0.8643926650251674 1.35301561977923 -0.8643926650251674 -0.6546361267643185" config_type=distorted_bulk sub_type=cent energy=-8.93848195 stress="0.017034977951664292 0.011415312995185107 -0.027358656037630283 0.011415312995185107 -0.004157385480181387 0.017478454245585757 -0.027358656037630283 0.017478454245585757 0.013237071590403274" free_energy=-8.93854214 pbc="T T T"
Ge       0.00000000       0.00000000       0.00000000       0.33208653      -0.47207711       0.25266422
Ge       1.43132852       1.47350397       1.45892044      -0.33208653       0.47207711      -0.25266422
2
Lattice="-0.13110800423346 3.151382371226369 2.9928172532403243 2.927352155739185 0.1907545447652219 3.023785120453962 3.133860726701974 2.9052020251828004 -0.21428163464752717" Properties=species:S:1:pos:R:3:forces:R:3 virial="-2.4576818213220224 -0.10326341005890326 1.161219013654365 -0.10326341005890326 -1.6478715523996224 -0.48573185228272064 1.161219013654365 -0.48573185228272064 -2.5237178575692236" config_type=distorted_bulk sub_type=target energy=-8.74604698 stress="0.04337577484765655 0.001822502158683353 -0.02049442448086932 0.001822502158683353 0.029083384518951035 0.008572710787117735 -0.02049442448086932 0.008572710787117735 0.04454124883832533" free_energy=-8.74620116 pbc="T T T"
Ge       0.00000000       0.00000000       0.00000000       0.09203069      -0.25684378       0.09436101
Ge       1.48252622       1.56183474       1.45058018      -0.09203069       0.25684378      -0.09436101
2
Lattice="-0.10144327748982374 2.9274836226422796 3.0025499179318698 2.7744158729665207 0.0361635544739555 2.8492445187593796 2.960357030937865 2.9170519213562653 0.07643293990246115" Properties=species:S:1:pos:R:3:forces:R:3 virial="-0.38060699489642413 -0.5292723517240414 1.3250392289920738 -0.5292723517240414 -0.23175599529533755 -1.0511022369619591 1.3250392289920738 -1.0511022369619591 -0.1121287789846194" config_type=distorted_bulk sub_type=cent energy=-8.9610762 stress="0.007784443336698077 0.01082505231622963 -0.02710063907206403 0.01082505231622963 0.004740037459919975 0.02149788604629725 -0.02710063907206403 0.02149788604629725 0.002293337059284594" free_energy=-8.96115912 pbc="T T T"
Ge       0.00000000       0.00000000       0.00000000       0.36786094      -0.47582137       0.25774869
Ge       1.40833241       1.47017477       1.48205684      -0.36786094       0.47582137      -0.25774869
2
Lattice="0.13570172523770196 2.851975387774494 2.8722109815448156 2.7840968511279467 0.04039832317741062 2.744495070433859 2.926958989798373 2.9777013060504847 -0.12920902361742953" Properties=species:S:1:pos:R:3:forces:R:3 virial="1.2126051776881466 -1.7781490393616244 1.032287120430329 -1.7781490393616244 0.542818447111978 0.17457534566489255 1.032287120430329 0.17457534566489255 0.5936684983608214" config_type=distorted_bulk sub_type=cent energy=-8.9239248 stress="-0.026191401175887138 0.03840674252210385 -0.022296660609217152 0.03840674252210385 -0.011724488708754475 -0.0037707021195849426 -0.022296660609217152 -0.0037707021195849426 -0.01282281330490377" free_energy=-8.92398364 pbc="T T T"
Ge       0.00000000       0.00000000       0.00000000       0.04979638      -0.36859455       0.63738155
Ge       1.46168939       1.46751875       1.37187426      -0.04979638       0.36859455      -0.63738155
2
Lattice="0.03901140352291084 3.145469116742156 3.107399954802661 2.6044557798421857 -0.1097781828507116 2.7816706325517173 2.8021330953786494 2.623326224590791 -0.19082774620536674" Properties=species:S:1:pos:R:3:forces:R:3 virial="1.7320531381605528 0.9874058193159531 2.1302976071689463 0.9874058193159531 0.1544516013465236 -1.504100904301337 2.1302976071689463 -1.504100904301337 -0.26694139899907526" config_type=distorted_bulk sub_type=base energy=-8.71029042 stress="-0.036096594313754705 -0.02057788326329322 -0.04439614859345725 -0.02057788326329322 -0.00321882549217635 0.03134598988526197 -0.04439614859345725 0.03134598988526197 0.005563152291879954" free_energy=-8.71046959 pbc="T T T"
Ge       0.00000000       0.00000000       0.00000000       0.32461035      -0.73075936      -0.09546509
Ge       1.36140007       1.41475429       1.42456071      -0.32461035       0.73075936       0.09546509
2
Lattice="-0.05469945962910576 2.9566759571216865 2.9671120341135246 2.8559285433846204 0.12559550744678846 2.878377157428114 3.0167262084723703 2.9834965735686647 -0.0467169028132944" Properties=species:S:1:pos:R:3:forces:R:3 virial="-0.9746109803625116 -0.8937804946892708 1.1576027122194474 -0.8937804946892708 -0.6551099000192722 -0.5728054720500657 1.1576027122194474 -0.5728054720500657 -0.8510748479548241" config_type=distorted_bulk sub_type=cent energy=-8.94613192 stress="0.019224725364311097 0.017630300594385008 -0.022834335618836164 0.017630300594385008 0.0129223948478677 0.011298895774025765 -0.022834335618836164 0.011298895774025765 0.016787908761625593" free_energy=-8.94623546 pbc="T T T"
Ge       0.00000000       0.00000000       0.00000000       0.23864055      -0.38123970       0.31328194
Ge       1.45448882       1.51644201       1.44969307      -0.23864055       0.38123970      -0.31328194
2
Lattice="-0.16547294086328473 2.8809596572803517 3.0057980105429274 2.8702903367394277 0.2182052639530174 2.936072429540413 2.6344097246362153 2.7367538172892685 -0.040371445896442495" Properties=species:S:1:pos:R:3:forces:R:3 virial="1.0463775914085176 1.4036506261373503 -0.06815743347843929 1.4036506261373503 1.874517776426188 -1.5427976878176528 -0.06815743347843929 -1.5427976878176528 -0.03584310097286834" config_type=distorted_bulk sub_type=base energy=-8.8754979 stress="-0.022830650619365227 -0.0306259014911223 0.0014871099721891535 -0.0306259014911223 -0.04089963392255736 0.03366191638289571 0.0014871099721891535 0.03366191638289571 0.0007820516438283557" free_energy=-8.8755556 pbc="T T T"
Ge       0.00000000       0.00000000       0.00000000       0.53974592       0.11781603      -0.52821191
Ge       1.33480678       1.45897968       1.47537475      -0.53974592      -0.11781603       0.52821191
2
Lattice="0.20669608054951064 2.6098799264950956 2.8976726495814606 3.001625832040609 -0.2859705952054098 2.667493103341423 3.1115525756621203 2.7480156117304446 0.27376502088077026" Properties=species:S:1:pos:R:3:forces:R:3 virial="0.3788075187310677 -0.6233899521330574 -0.7149486005551902 -0.6233899521330574 1.538249718110094 -0.24767551829705475 -0.7149486005551902 -0.24767551829705475 2.3195941926325863" config_type=distorted_bulk sub_type=base energy=-8.91114083 stress="-0.008519031755178636 0.01401946512537702 0.016078534691847626 0.01401946512537702 -0.03459381756695772 0.005569993997006401 0.016078534691847626 0.005569993997006401 -0.05216553423321555" free_energy=-8.91124649 pbc="T T T"
Ge       0.00000000       0.00000000       0.00000000       0.06096689       0.22018071       0.33822379
Ge       1.57996862       1.26798124       1.45973269      -0.06096689      -0.22018071      -0.33822379
2
Lattice="0.013043108481500105 2.985812787240261 2.881733987332946 2.8013655501500554 -0.13335588720088212 2.9628642593311794 2.8782816686213732 2.893581467824465 0.13314315271440014" Properties=species:S:1:pos:R:3:forces:R:3 virial="0.19751829588070707 0.45894314549205156 -0.556694760916448 0.45894314549205156 -1.0949262950039012 -0.04637018834843087 -0.556694760916448 -0.04637018834843087 0.003938592406944968" config_type=distorted_bulk sub_type=cent energy=-8.99868445 stress="-0.004055603593039273 -0.009423387649022922 0.011430501982269347 -0.009423387649022922 0.022481902227492547 0.0009521097862720729 0.011430501982269347 0.0009521097862720729 -8.087032872524612e-05" free_energy=-8.9987518 pbc="T T T"
Ge       0.00000000       0.00000000       0.00000000       0.04397641       0.18900768      -0.16996078
Ge       1.42317258       1.43650959       1.49443535      -0.04397641      -0.18900768       0.16996078
2
Lattice="0.2707475320298647 2.9832378250159013 2.9154050744685924 2.7793198997394946 -0.2479690696925915 2.7429467025845677 3.1126636942676598 3.133731056172626 0.14324448058154474" Properties=species:S:1:pos:R:3:forces:R:3 virial="0.3129433345024351 -1.4824777607642694 0.146702676718143 -1.4824777607642694 -2.2409387320505263 0.1292845099803823 0.146702676718143 0.1292845099803823 0.6474811258813848" config_type=distorted_bulk sub_type=base energy=-8.82996892 stress="-0.00631082931103522 0.029895712974567955 -0.002958412754539678 0.029895712974567955 0.04519087091899226 -0.0026071572233492425 -0.002958412754539678 -0.0026071572233492425 -0.013057133407398176" free_energy=-8.83009342 pbc="T T T"
Ge       0.00000000       0.00000000       0.00000000      -0.12295836      -0.02694565       0.48284969
Ge       1.54068278       1.46724995       1.45039906       0.12295836       0.02694565      -0.48284969
2
Lattice="-0.0015964994256934873 2.9070810641092866 2.8900824428640726 2.886032194577364 0.005259834954364788 2.8989176397281007 2.8702536659014397 2.8989095798679214 -0.016122468809539853" Properties=species:S:1:pos:R:3:forces:R:3 virial="-0.16328471847112086 0.07180054400012553 -0.024674047822679065 0.07180054400012553 -0.30968900659900445 0.04025955524346758 -0.024674047822679065 0.04025955524346758 -0.32576920438603324" config_type=distorted_bulk sub_type=accurate energy=-9.03382779 stress="0.0033685548771178278 -0.0014812413245769414 0.0005090242669954706 -0.0014812413245769414 0.00638886739271536 -0.0008305524389287107 0.0005090242669954706 -0.0008305524389287107 0.006720601000046749" free_energy=-9.03388242 pbc="T T T"
Ge       0.00000000       0.00000000       0.00000000      -0.01399029       0.00768460      -0.02448008
Ge       1.43867234       1.45281262       1.44321940       0.01399029      -0.00768460       0.02448008
2
Lattice="0.10452790404917209 3.1303417587291595 2.702070587689906 3.077506902425189 0.17819817703328653 2.7907018609453758 2.9953454478436288 3.1028338942015443 -0.14019638631425563" Properties=species:S:1:pos:R:3:forces:R:3 virial="-1.2149876555262002 -0.5250540792641426 -0.43669258030523783 -0.5250540792641426 -1.5484957790899176 0.11727510200501332 -0.43669258030523783 0.11727510200501332 -0.24279693428419213" config_type=distorted_bulk sub_type=base energy=-8.96257479 stress="0.02383752115976451 0.010301329126721957 0.008567715545085054 0.010301329126721957 0.030380803238593858 -0.0023008857027006745 0.008567715545085054 -0.0023008857027006745 0.004763568610924522" free_energy=-8.96268365 pbc="T T T"
Ge       0.00000000       0.00000000       0.00000000      -0.03125245       0.14528679       0.16859132
Ge       1.54434506       1.60284346       1.33814402       0.03125245      -0.14528679      -0.16859132
2
Lattice="-0.1127547970244432 2.7469186801235868 3.155944214966265 2.7885102651384495 -0.07002584323057685 3.0906088896767554 3.114118806448484 2.7667811262302635 -0.23697125042782544" Properties=species:S:1:pos:R:3:forces:R:3 virial="-1.304112936318628 -0.24895089391166716 1.6328791414080128 -0.24895089391166716 -0.40642387998860163 0.49246979995783574 1.6328791414080128 0.49246979995783574 -2.818257706523783" config_type=distorted_bulk sub_type=target energy=-8.69762849 stress="0.024037980700760454 0.0045887718897863975 -0.030097943356533093 0.0045887718897863975 0.007491382925065337 -0.009077419000620585 -0.030097943356533093 -0.009077419000620585 0.05194736013464116" free_energy=-8.69783304 pbc="T T T"
Ge       0.00000000       0.00000000       0.00000000      -0.10271802      -0.47087393      -0.07569748
Ge       1.44746857       1.36091849       1.50239546       0.10271802       0.47087393       0.07569748
2
Lattice="0.2256971468019272 2.8761229302819253 3.013522063075945 2.6116948807971325 0.25990659942324656 2.755364316469852 2.804627499795113 2.72311910534807 0.2572524417274861" Properties=species:S:1:pos:R:3:forces:R:3 virial="6.790367470701042 -3.537859596137241 0.9701566596588304 -3.537859596137241 7.319456164113814 -5.930178401222326 0.9701566596588304 -5.930178401222326 6.4427506008306565" config_type=distorted_bulk sub_type=target energy=-7.74456136 stress="-0.17939895820379706 0.09346892175671924 -0.025631174570188812 0.09346892175671924 -0.19337728276505384 0.15667308606379585 -0.025631174570188812 0.15667308606379585 -0.1702150510621157" free_energy=-7.74471184 pbc="T T T"
Ge       0.00000000       0.00000000       0.00000000       3.25959108      -1.13581531       1.96442175
Ge       1.41050488       1.46478716       1.50653471      -3.25959108       1.13581531      -1.96442175
2
Lattice="0.13535420741993426 2.64276304725913 2.68521619763237 2.608039760434835 -0.018746718828541897 2.7993264231597936 3.0332425488502586 2.5995366218846208 -0.09940761153852391" Properties=species:S:1:pos:R:3:forces:R:3 virial="3.5756206819782745 -2.7533982519909066 1.3365975084158908 -2.7533982519909066 4.837881087133549 0.7918685802557316 1.3365975084158908 0.7918685802557316 3.570916849607168" config_type=distorted_bulk sub_type=target energy=-8.5544802 stress="-0.08829155338652163 0.06798870192950952 -0.03300413571981639 0.06798870192950952 -0.11946010896378698 -0.019553334440966526 -0.03300413571981639 -0.019553334440966526 -0.08817540329571137" free_energy=-8.55452961 pbc="T T T"
Ge       0.00000000       0.00000000       0.00000000      -0.36837170      -0.46330408       1.22144737
Ge       1.44415913       1.30588824       1.34628375       0.36837170       0.46330408      -1.22144737
2
Lattice="-0.014547501332159235 2.920640450409206 2.7125493845255737 2.864578426895816 -0.03558921602364601 2.621937393576057 2.603565859765119 3.1273111404318255 -0.13919009770910934" Properties=species:S:1:pos:R:3:forces:R:3 virial="1.6010024569631862 0.4357229843267836 -0.032139983184921256 0.4357229843267836 -0.6729870050426685 1.1320657689055171 -0.032139983184921256 1.1320657689055171 1.7063351472065897" config_type=distorted_bulk sub_type=base energy=-8.90583318 stress="-0.034977254543895546 -0.009519281914365081 0.0007021653014998233 -0.009519281914365081 0.014702811777541574 -0.02473234965207152 0.0007021653014998233 -0.02473234965207152 -0.037278467950791365" free_energy=-8.90589772 pbc="T T T"
Ge       0.00000000       0.00000000       0.00000000      -0.48857706      -0.04235590      -0.10039065
Ge       1.36339920       1.50309059       1.29882417       0.48857706       0.04235590       0.10039065
2
Lattice="0.005049176023740181 2.8764069726896055 2.859937744434549 2.89570337668337 0.006773520403158481 2.868508999098815 2.85681467875094 2.879639947061472 -0.013952524944750298" Properties=species:S:1:pos:R:3:forces:R:3 virial="0.10691912327311064 0.08997816746274051 -0.14697386037408935 0.08997816746274051 0.10276646918315198 0.07170042794812422 -0.14697386037408935 0.07170042794812422 0.12663586148789485" config_type=distorted_bulk sub_type=accurate energy=-9.03485166 stress="-0.002253843804184913 -0.0018967302484307978 0.0030981934235948627 -0.0018967302484307978 -0.002166306295411398 -0.0015114374336525085 0.0030981934235948627 -0.0015114374336525085 -0.0026694705592847957" free_energy=-9.03488824 pbc="T T T"
Ge       0.00000000       0.00000000       0.00000000      -0.02413617       0.05012174      -0.03026630
Ge       1.43939181       1.44070511       1.42862355       0.02413617      -0.05012174       0.03026630
2
Lattice="0.12143528300688496 2.8403091593718566 2.953216395902648 2.9228222200996354 0.02329379554302875 3.0039137340450823 2.917502743484065 2.7511502609453915 -0.11641048533413897" Properties=species:S:1:pos:R:3:forces:R:3 virial="0.10675700386445693 -0.20736871684261135 -0.20064186659801378 -0.20736871684261135 0.5283761924756282 0.18885274834471216 -0.20064186659801378 0.18885274834471216 -1.257938061189708" config_type=distorted_bulk sub_type=cent energy=-8.99114779 stress="-0.002205666350464824 0.004284367154585308 0.00414538622881895 0.004284367154585308 -0.010916582012828734 -0.0039018156855132164 0.00414538622881895 -0.0039018156855132164 0.025989785701159573" free_energy=-8.99121294 pbc="T T T"
Ge       0.00000000       0.00000000       0.00000000      -0.07907118       0.07391683       0.06915711
Ge       1.49044006       1.40368830       1.46017991       0.07907118      -0.07391683      -0.06915711
2
Lattice="0.10433678511776573 2.9986390059471257 2.786576640998565 2.984652296563193 0.06342227756333357 2.8014704995803137 2.962112080306759 2.9720811685437942 -0.10131161051542764" Properties=species:S:1:pos:R:3:forces:R:3 virial="-0.5505964902514867 -0.39710398677909764 -0.1407076437473509 -0.39710398677909764 -0.7708454383311774 0.09680314241248357 -0.1407076437473509 0.09680314241248357 -0.0649320614174313" config_type=distorted_bulk sub_type=cent energy=-9.01788769 stress="0.011210117010090878 0.00808501731446561 0.002864800590903742 0.00808501731446561 0.015694374579903993 -0.001970907139078883 0.002864800590903742 -0.001970907139078883 0.0013220135236665662" free_energy=-9.01799388 pbc="T T T"
Ge       0.00000000       0.00000000       0.00000000      -0.02830806       0.05767104       0.14095563
Ge       1.51277529       1.50853561       1.37168388       0.02830806      -0.05767104      -0.14095563
2
Lattice="0.000269574518137234 2.881308682340773 2.88204013040127 2.8794049813637717 0.002521741991588803 2.878670821670851 2.8827691143018677 2.881971069262189 0.0025055235482781455" Properties=species:S:1:pos:R:3:forces:R:3 virial="-0.03208371595461426 -0.025232521546109582 0.014666153477356236 -0.025232521546109582 -0.028058043737777774 -0.028650695173627328 0.014666153477356236 -0.028650695173627328 -0.019266012953145936" config_type=distorted_bulk sub_type=more energy=-9.03610656 stress="0.000671447620714152 0.0005280659067272792 -0.0003069330831668568 0.0005280659067272792 0.000587198401091536 0.0005996014031963087 -0.0003069330831668568 0.0005996014031963087 0.00040319888682275305" free_energy=-9.03614751 pbc="T T T"
Ge       0.00000000       0.00000000       0.00000000       0.01002633      -0.00524495       0.00885867
Ge       1.44061092       1.44145037       1.44080412      -0.01002633       0.00524495      -0.00885867
2
Lattice="0.1112367684246594 2.820375257719696 2.8584020356453794 2.996005539207254 0.06451078495095225 2.9289672061173215 2.846183348100788 2.9173341522066236 -0.07136896997930155" Properties=species:S:1:pos:R:3:forces:R:3 virial="0.20428153459682769 -0.5381981769854157 -1.0030969230022244 -0.5381981769854157 0.3938911462722448 0.7047952946945143 -1.0030969230022244 0.7047952946945143 -0.195817527913529" config_type=distorted_bulk sub_type=cent energy=-8.99242781 stress="-0.004289613111798068 0.011301373671873267 0.021063566620482296 0.011301373671873267 -0.008271137325286329 -0.014799669207606005 0.021063566620482296 -0.014799669207606005 0.004111881364684061" free_energy=-8.99249157 pbc="T T T"
Ge       0.00000000       0.00000000       0.00000000      -0.28313893       0.36651893       0.23229173
Ge       1.48835641       1.45055505       1.42900007       0.28313893      -0.36651893      -0.23229173
2
Lattice="0.019438555434131193 2.918854111950035 2.607393187461695 2.6723066265294846 -0.23494076566086236 3.1453150652654047 2.9231976035046965 2.888830283575684 0.18472529262547036" Properties=species:S:1:pos:R:3:forces:R:3 virial="-1.5607866325483268 0.6967782769706891 -0.41910600197876025 0.6967782769706891 -0.6551288614029986 -1.6793356145721667 -0.41910600197876025 -1.6793356145721667 0.33959765403425385" config_type=distorted_bulk sub_type=base energy=-8.84048245 stress="0.03311095897998514 -0.014781646937386143 0.008891030554975378 -0.014781646937386143 0.013898084724817378 0.035625889848211176 0.008891030554975378 0.035625889848211176 -0.0072043184878309765" free_energy=-8.84060042 pbc="T T T"
Ge       0.00000000       0.00000000       0.00000000       0.55602295       0.22010493      -0.28937900
Ge       1.40373570       1.39318591       1.48435839      -0.55602295      -0.22010493       0.28937900
2
Lattice="-0.11831142543831458 2.739454873263707 2.840894578628634 2.915617120353285 0.04047141424169894 2.845779453783395 2.9008974389086504 2.9397641472365446 0.013653233163552322" Properties=species:S:1:pos:R:3:forces:R:3 virial="-0.5463342779751715 -0.38077164975556 0.28485707812032607 -0.38077164975556 0.4768803001725581 0.5675310994842295 0.28485707812032607 0.5675310994842295 0.4341631048389541" config_type=distorted_bulk sub_type=cent energy=-9.00629415 stress="0.011498833187817293 0.008014195447183996 -0.005995457645115078 0.008014195447183996 -0.01003701807355695 -0.011944967952686781 -0.005995457645115078 -0.011944967952686781 -0.00913793865790505" free_energy=-9.00636648 pbc="T T T"
Ge       0.00000000       0.00000000       0.00000000      -0.19016994      -0.11433713       0.10802249
Ge       1.42455078       1.42992261       1.42508182       0.19016994       0.11433713      -0.10802249
2
Lattice="0.040146581931180675 2.6850050271038777 2.7968818058960827 2.9284644608614845 -0.16521826120212518 2.916220611348524 2.8925140317010425 3.093238507455118 -0.272091851682113" Properties=species:S:1:pos:R:3:forces:R:3 virial="-0.2505679588565431 -0.6657183106238325 -0.0754365556687594 -0.6657183106238325 -0.5944985207626965 2.9386445494213613 -0.0754365556687594 2.9386445494213613 -0.5726947242516477" config_type=distorted_bulk sub_type=base energy=-8.7412848 stress="0.004903512951073516 0.013027836331538612 0.0014762626849585349 0.013027836331538612 0.011634094036831424 -0.057508077538912995 0.0014762626849585349 -0.057508077538912995 0.011207402615221086" free_energy=-8.74144587 pbc="T T T"
Ge       0.00000000       0.00000000       0.00000000      -0.90313937       0.13778478       0.20416993
Ge       1.46528127       1.40325632       1.36025264       0.90313937      -0.13778478      -0.20416993
2
Lattice="-0.2844675320570908 2.9788909839139737 2.8804035953011176 2.7318110132688713 -0.2337646353068164 3.0516550625124825 3.021256697913196 2.775958927385671 -0.11004326377234507" Properties=species:S:1:pos:R:3:forces:R:3 virial="-1.6844984440329513 1.3034622170872399 1.481883662675538 1.3034622170872399 -1.564645207555064 1.097242678785177 1.481883662675538 1.097242678785177 -1.586544700748314" config_type=distorted_bulk sub_type=base energy=-8.75981726 stress="0.030828792337100116 -0.023855270482548787 -0.027120644644223736 -0.023855270482548787 0.028635302309611636 -0.020081150450151422 -0.027120644644223736 -0.020081150450151422 0.02903609515708145" free_energy=-8.76004281 pbc="T T T"
Ge       0.00000000       0.00000000       0.00000000      -0.41676401      -0.46981599      -0.46379060
Ge       1.36715004       1.38027132       1.45550385       0.41676401       0.46981599       0.46379060
2
Lattice="0.048541643858246594 2.868935372881013 2.895247472411549 2.906134574581339 -0.04955040371712853 2.812120808847026 2.9613086103113124 2.984093751899166 0.017035242129619547" Properties=species:S:1:pos:R:3:forces:R:3 virial="-0.3999738165651063 -0.562660965478261 0.2382449819435795 -0.562660965478261 -0.7037200391551407 0.21303663477407694 0.2382449819435795 0.21303663477407694 -0.0007538000135829206" config_type=distorted_bulk sub_type=cent energy=-9.01438807 stress="0.008183650834608409 0.01151230577861644 -0.004874603447964631 0.01151230577861644 0.01439844021596149 -0.004358828907709899 -0.004874603447964631 -0.004358828907709899 1.5423099850041204e-05" free_energy=-9.01449565 pbc="T T T"
Ge       0.00000000       0.00000000       0.00000000      -0.06329287      -0.07760068       0.19071053
Ge       1.47899621       1.45086968       1.43110088       0.06329287       0.07760068      -0.19071053
2
Lattice="-0.056873963819820295 3.016215414802753 2.9861298662882856 2.8670094927977785 -0.02466200345208092 3.016934939065976 2.961566024741864 2.938572699912258 0.1171850960749742" Properties=species:S:1:pos:R:3:forces:R:3 virial="-1.1636546672155956 0.1941746629985262 -0.006693919426838395 0.1941746629985262 -1.4532209154474578 -0.40215288814557976 -0.006693919426838395 -0.40215288814557976 -1.165360431033055" config_type=distorted_bulk sub_type=cent energy=-8.97622991 stress="0.02245724334189461 -0.0037473554488656287 0.00012918521423477757 -0.0037473554488656287 0.02804555049465368 0.00776110432431046 0.00012918521423477757 0.00776110432431046 0.022490162690058397" free_energy=-8.97636669 pbc="T T T"
Ge       0.00000000       0.00000000       0.00000000       0.12291213       0.00189700      -0.05181965
Ge       1.44292539       1.48253153       1.53006248      -0.12291213      -0.00189700       0.05181965
2
Lattice="-0.1470564749540089 2.687050996858668 2.6821197473431155 2.859697796893842 0.18884181028305141 2.6147239568714493 3.0984166867386906 2.594636531459314 0.11720222750153131" Properties=species:S:1:pos:R:3:forces:R:3 virial="1.7068747941312643 -1.1498299847418791 1.7225891140038738 -1.1498299847418791 5.136442927343764 -2.86487226497207 1.7225891140038738 -2.86487226497207 5.487696849061624" config_type=distorted_bulk sub_type=target energy=-8.29637725 stress="-0.04246524466573967 0.02860655731395878 -0.042856200370540325 0.02860655731395878 -0.12778928271201997 0.071275000419729 -0.042856200370540325 0.071275000419729 -0.13652810982273447" free_energy=-8.2965921 pbc="T T T"
Ge       0.00000000       0.00000000       0.00000000       1.49461093      -1.12804244       0.85504468
Ge       1.45276450       1.36763233       1.35351148      -1.49461093       1.12804244      -0.85504468
2
Lattice="0.21574809850390536 2.826759369193838 2.6388181832022033 3.1285872762200193 0.28428196834330705 2.7650452726593104 2.7119136626986187 2.7461657566611426 -0.13496348242922807" Properties=species:S:1:pos:R:3:forces:R:3 virial="2.7594265980796844 -0.09744443162510642 -3.2430078463082554 -0.09744443162510642 3.852174318588945 -0.5116569197117276 -3.2430078463082554 -0.5116569197117276 3.713947662712067" config_type=distorted_bulk sub_type=target energy=-8.61951273 stress="-0.06668335786016732 0.0023548087526805584 0.07836941664228284 0.0023548087526805584 -0.09309032492655382 0.012364525841169982 0.07836941664228284 0.012364525841169982 -0.08974998691355265" free_energy=-8.61960556 pbc="T T T"
Ge       0.00000000       0.00000000       0.00000000       0.12055818       1.53438984      -0.20098756
Ge       1.51406226       1.46430177       1.31722499      -0.12055818      -1.53438984       0.20098756
2
Lattice="0.27982420166356736 2.824675601931724 2.920730043523134 3.05031762754346 0.08164798966159904 3.1085408684496705 2.8533355364982365 3.064483572995806 0.141909256057624" Properties=species:S:1:pos:R:3:forces:R:3 virial="1.1203575373738979 -1.7741082491654643 -3.172003667240035 -1.7741082491654643 0.4094151811125637 1.2060359361338324 -3.172003667240035 1.2060359361338324 0.4583503123238888" config_type=distorted_bulk sub_type=base energy=-8.723352 stress="-0.02344311361954933 0.037122632616060705 0.06637313526451379 0.037122632616060705 -0.008566878240394307 -0.025235905982582168 0.06637313526451379 -0.025235905982582168 -0.009590829793988216" free_energy=-8.72350627 pbc="T T T"
Ge       0.00000000       0.00000000       0.00000000      -0.73495147       1.19280393       0.84782754
Ge       1.54586934       1.49270179       1.54279504       0.73495147      -1.19280393      -0.84782754
2