(written by ASE)

1 atoms
1 atom types

0.0      3.1819805153394629  xlo xhi
0.0      2.7556759606310743  ylo yhi
0.0      2.5980762113533151  zlo zhi
     1.5909902576697312      1.5909902576697312     0.91855865354369159  xy xz yz

Atoms # atomic

     1   1                       0                       0                       0
