(written by ASE)

1 atoms
1 atom types

0.0      3.2173358543987893  xlo xhi
0.0      2.7862945824158634  ylo yhi
0.0      2.6269437248127958  zlo zhi
     1.6086679271993947      1.6086679271993947     0.92876486080528786  xy xz yz

Atoms # atomic

     1   1                       0                       0                       0
