(written by ASE)

8 atoms
1 atom types

0.0      6.6683956091401742  xlo xhi
0.0      6.2870236731434872  ylo yhi
0.0      5.4447222151364132  zlo zhi
    -2.2227985363800578     -2.2227985363800578     -3.1435118365717432  xy xz yz

Atoms # atomic

     1   1      0.4503389834705997     0.63687549808943511       1.103100720786637
     2   1     -0.4503389834705997    -0.63687549808943511      -1.103100720786637
     3   1     0.87178158596825883      3.1435118365717432 -2.1275741788094332e-16
     4   1    -0.87178158596825883     -3.1435118365717432  2.1275741788094332e-16
     5   1     -1.7724595529094582     0.29800492210700125      2.7223611075682062
     6   1      1.7724595529094582    -0.29800492210700125     -2.7223611075682062
     7   1      2.6731375198506573    -0.93488042019643647      1.6192603867815691
     8   1     -2.6731375198506573     0.93488042019643647     -1.6192603867815691
