(written by ASE)

1 atoms
1 atom types

0.0       2.598076211353316  xlo xhi
0.0      2.4494897427831779  ylo yhi
0.0      2.1213203435596424  zlo zhi
    -0.8660254037844386     -0.8660254037844386     -1.2247448713915892  xy xz yz

Atoms # atomic

     1   1                       0                       0                       0
