(written by ASE)

2 atoms
1 atom types

0.0      5.3999999999999968  xlo xhi
0.0      5.3999999999999968  ylo yhi
0.0      1.4922899999999983  zlo zhi
                      0      2.6999999999999984      2.6999999999999984  xy xz yz

Atoms # atomic

     1   1                       0     -1.3499999999999992     0.37307249999999992
     2   1                       0      1.3499999999999992    -0.37307249999999992
