(written by ASE)

1 atoms
1 atom types

0.0      2.7577164466275352  xlo xhi
0.0      2.3882524992135985  ylo yhi
0.0      2.2516660498395402  zlo zhi
     1.3788582233137676      1.3788582233137676     0.79608416640453283  xy xz yz

Atoms # atomic

     1   1                       0                       0                       0
