(written by ASE)

8 atoms
1 atom types

0.0      6.5817930687617308  xlo xhi
0.0      6.2053740150507153  ylo yhi
0.0      5.3740115370177595  zlo zhi
    -2.1939310229205766     -2.1939310229205766     -3.1026870075253568  xy xz yz

Atoms # atomic

     1   1      0.4444904252437088     0.62860438772463723      1.0887747373997974
     2   1     -0.4444904252437088    -0.62860438772463723     -1.0887747373997974
     3   1     0.86045974718945017      3.1026870075253568 -4.5410113390173583e-16
     4   1    -0.86045974718945017     -3.1026870075253568  4.5410113390173583e-16
     5   1     -1.7494405976768679     0.29413472831340398      2.6870057685088784
     6   1      1.7494405976768679    -0.29413472831340398     -2.6870057685088784
     7   1      2.6384214481642854    -0.92273911603804115      1.5982310311090806
     8   1     -2.6384214481642854     0.92273911603804115     -1.5982310311090806
