(written by ASE)

1 atoms
1 atom types

0.0      2.7930717856868625  xlo xhi
0.0       2.418871120998388  ylo yhi
0.0      2.2805335632990213  zlo zhi
     1.3965358928434313      1.3965358928434313     0.80629037366612943  xy xz yz

Atoms # atomic

     1   1                       0                       0                       0
