(written by ASE)

4 atoms
1 atom types

0.0      3.6499999999999999  xlo xhi
0.0      3.1609927238132007  ylo yhi
0.0      6.0210399999999993  zlo zhi
    -1.8249999999999997                       0                       0  xy xz yz

Atoms # atomic

     1   1 -3.0016873531492445e-18      2.1073284825421341     0.37818152239999997
     2   1                   1.825      1.0536642412710668      3.3887015223999999
     3   1 -3.0016873531492445e-18      2.1073284825421341      2.6323384775999994
     4   1                   1.825      1.0536642412710668    -0.37818152239999997
