(written by ASE)

4 atoms
1 atom types

0.0                     4.5  xlo xhi
0.0       3.897114317029974  ylo yhi
0.0      7.4231999999999996  zlo zhi
    -2.2499999999999996                       0                       0  xy xz yz

Atoms # atomic

     1   1  3.4211433658839388e-17      2.5980762113533156     0.46625119199999998
     2   1                    2.25      1.2990381056766573      4.1778511920000003
     3   1  3.4211433658839388e-17      2.5980762113533156      3.2453488079999997
     4   1                    2.25      1.2990381056766573    -0.46625119199999998
