LAMMPS (2 Aug 2023 - Update 3)
OMP_NUM_THREADS environment is not set. Defaulting to 1 thread. (src/comm.cpp:98)
  using 1 OpenMP thread(s) per MPI task
OMP_NUM_THREADS environment is not set. Defaulting to 1 thread. (src/comm.cpp:98)
  using 1 OpenMP thread(s) per MPI task
Lattice spacing in x,y,z = 3 3 3
Created orthogonal box = (0 0 0) to (27 27 27)
  1 by 1 by 1 MPI processor grid
Created 5832 atoms
  using lattice units in orthogonal box = (0 0 0) to (27 27 27)
  create_atoms CPU = 0.001 seconds
Neighbor list info ...
  update: every = 1 steps, delay = 0 steps, check = yes
  max neighbors/atom: 2000, page size: 100000
  master list distance cutoff = 6.5
  ghost atom cutoff = 6.5
  binsize = 3.25, bins = 9 9 9
  2 neighbor lists, perpetual/occasional/extra = 2 0 0
  (1) pair meam, perpetual
      attributes: full, newton on
      pair build: full/bin/atomonly
      stencil: full/bin/3d
      bin: standard
  (2) pair meam, perpetual, half/full from (1)
      attributes: half, newton on
      pair build: halffull/newton
      stencil: none
      bin: none
Setting up cg style minimization ...
  Unit style    : metal
  Current step  : 0
Per MPI rank memory allocation (min/avg/max) = 56.45 | 56.45 | 56.45 Mbytes
   Step          Temp          E_pair         E_mol          TotEng         Press     
         0   0              326876.76      0              326876.76      41023155     
         1   0              326876.76      0              326876.76      41023155     
Loop time of 0.188511 on 1 procs for 1 steps with 5832 atoms

99.7% CPU use with 1 MPI tasks x 1 OpenMP threads

Minimization stats:
  Stopping criterion = search direction is not downhill
  Energy initial, next-to-last, final = 
      326876.758019129   326876.758019129   326876.758019129
  Force two-norm initial, final = 0 0
  Force max component initial, final = 0 0
  Final line search alpha, max atom move = 0 0
  Iterations, force evaluations = 1 0

MPI task timing breakdown:
Section |  min time  |  avg time  |  max time  |%varavg| %total
---------------------------------------------------------------
Pair    | 0.18826    | 0.18826    | 0.18826    |   0.0 | 99.86
Neigh   | 0          | 0          | 0          |   0.0 |  0.00
Comm    | 6.2666e-05 | 6.2666e-05 | 6.2666e-05 |   0.0 |  0.03
Output  | 0          | 0          | 0          |   0.0 |  0.00
Modify  | 0          | 0          | 0          |   0.0 |  0.00
Other   |            | 0.0001926  |            |       |  0.10

Nlocal:           5832 ave        5832 max        5832 min
Histogram: 1 0 0 0 0 0 0 0 0 0
Nghost:          12798 ave       12798 max       12798 min
Histogram: 1 0 0 0 0 0 0 0 0 0
Neighs:     1.0381e+06 ave  1.0381e+06 max  1.0381e+06 min
Histogram: 1 0 0 0 0 0 0 0 0 0
FullNghs:  2.07619e+06 ave 2.07619e+06 max 2.07619e+06 min
Histogram: 1 0 0 0 0 0 0 0 0 0

Total # of neighbors = 2076192
Ave neighs/atom = 356
Neighbor list builds = 0
Dangerous builds = 0
System init for write_data ...
Total wall time: 0:00:00
