(written by ASE)

2 atoms
1 atom types

0.0                    2.75  xlo xhi
0.0      2.3815698604072062  ylo yhi
0.0      4.4907311951024935  zlo zhi
                 -1.375                       0                       0  xy xz yz

Atoms # atomic

     1   1                       0                       0                       0
     2   1  1.3877787807814457e-17      1.5877132402714706      2.2453655975512468
