(written by ASE)

8 atoms
1 atom types

0.0      6.4085879880048431  xlo xhi
0.0      6.0420746988651697  ylo yhi
0.0      5.2325901807804494  zlo zhi
    -2.1361959960016144     -2.1361959960016144     -3.0210373494325848  xy xz yz

Atoms # atomic

     1   1     0.43279330878992706     0.61206216699504179      1.0601227706261191
     2   1    -0.43279330878992706    -0.61206216699504179     -1.0601227706261191
     3   1     0.83781606963183297      3.0210373494325848 -2.6968647860864144e-17
     4   1    -0.83781606963183297     -3.0210373494325848  2.6968647860864144e-17
     5   1     -1.7034026872116872     0.28639434072620895      2.6162950903902247
     6   1      1.7034026872116872    -0.28639434072620895     -2.6162950903902247
     7   1      2.5689893047915415    -0.89845650772125063      1.5561723197641057
     8   1     -2.5689893047915415     0.89845650772125063     -1.5561723197641057
