(written by ASE)

1 atoms
1 atom types

0.0      3.1112698372208083  xlo xhi
0.0      2.6944387170614954  ylo yhi
0.0      2.5403411844343529  zlo zhi
     1.5556349186104041      1.5556349186104041     0.89814623902049828  xy xz yz

Atoms # atomic

     1   1                       0                       0                       0
