(written by ASE)

2 atoms
1 atom types

0.0      5.4999999999999964  xlo xhi
0.0      5.4999999999999964  ylo yhi
0.0      1.5199249999999993  zlo zhi
                      0      2.7499999999999982      2.7499999999999982  xy xz yz

Atoms # atomic

     1   1                       0     -1.3749999999999991      0.3799812499999996
     2   1                       0      1.3749999999999991     -0.3799812499999996
